unknown system                          
   1.00000000000000     
     3.196922    0.000000    0.000000
    -1.598461    2.768616    0.000000
     0.000000    0.000000    5.205169
   Ga   N 
     2     2
Direct
  0.333333  0.666667  0.999137
  0.666667  0.333333  0.499137
  0.333333  0.666667  0.375863
  0.666667  0.333333  0.875863
 
   32   32   56
 0.26442323881E+01 0.27256387244E+01 0.29704066443E+01 0.33836224492E+01 0.39815744589E+01
 0.47990106985E+01 0.58909031574E+01 0.73236939559E+01 0.91560697521E+01 0.11413208199E+02
 0.14058842502E+02 0.16971947062E+02 0.19999286401E+02 0.22874671517E+02 0.25280598696E+02
 0.26892396321E+02 0.27460460389E+02 0.26890700994E+02 0.25277054422E+02 0.22871318023E+02
 0.19999742296E+02 0.16977188530E+02 0.14065408214E+02 0.11416818208E+02 0.91558021340E+01
 0.73217069218E+01 0.58893459522E+01 0.47984356918E+01 0.39815713665E+01 0.33837106525E+01
 0.29703467761E+01 0.27255034165E+01 0.27259058899E+01 0.27258341233E+01 0.28857737867E+01
 0.32077814416E+01 0.37022847334E+01 0.43972493137E+01 0.53413186654E+01 0.65947742667E+01
 0.82111647202E+01 0.10217740792E+02 0.12599063556E+02 0.15282410781E+02 0.18125108836E+02
 0.20911375112E+02 0.23369745320E+02 0.25212923181E+02 0.26216174151E+02 0.26216858809E+02
 0.25212854445E+02 0.23365381613E+02 0.20902917611E+02 0.18117656335E+02 0.15281157317E+02
 0.12603928004E+02 0.10223852963E+02 0.82143103790E+01 0.65948937254E+01 0.53406579949E+01
 0.43970416410E+01 0.37023070025E+01 0.32077829665E+01 0.28858511791E+01 0.29709671865E+01
 0.28920331875E+01 0.29705289856E+01 0.32078351435E+01 0.36112682145E+01 0.42049864685E+01
 0.50361067220E+01 0.61662343328E+01 0.76516595633E+01 0.95240263287E+01 0.11778383595E+02
 0.14365825943E+02 0.17184638029E+02 0.20068769864E+02 0.22782200602E+02 0.25035698882E+02
 0.26537392110E+02 0.27066861343E+02 0.26540992960E+02 0.25039923579E+02 0.22782371401E+02
 0.20062733758E+02 0.17176111311E+02 0.14361054879E+02 0.11779331485E+02 0.95272489873E+01
 0.76536339667E+01 0.61667601711E+01 0.50362502065E+01 0.42048774380E+01 0.36109567698E+01
 0.32079228013E+01 0.33839185854E+01 0.32278477587E+01 0.32276206137E+01 0.33836835104E+01
 0.37021417495E+01 0.42045567653E+01 0.49369890721E+01 0.59643159860E+01 0.73498263531E+01
 0.91342488613E+01 0.11325741182E+02 0.13898108129E+02 0.16785552225E+02 0.19865783729E+02
 0.22936486385E+02 0.25706682223E+02 0.27830294346E+02 0.28988605095E+02 0.28990092086E+02
 0.27835521932E+02 0.25714992096E+02 0.22943117154E+02 0.19866253067E+02 0.16781140691E+02
 0.13893763316E+02 0.11323938044E+02 0.91338447286E+01 0.73495700161E+01 0.59642746545E+01
 0.49371011651E+01 0.42044068666E+01 0.37019762659E+01 0.39815713665E+01 0.37456864286E+01
 0.36689182855E+01 0.37459394128E+01 0.39816387658E+01 0.43966279227E+01 0.50353911416E+01
 0.59639562745E+01 0.72527044828E+01 0.89544459648E+01 0.11093031863E+02 0.13666194016E+02
 0.16647717917E+02 0.19968318357E+02 0.23472544705E+02 0.26879352953E+02 0.29789853499E+02
 0.31767311097E+02 0.32468560440E+02 0.31765116476E+02 0.29789676295E+02 0.26884194150E+02
 0.23480300732E+02 0.19974061683E+02 0.16648808560E+02 0.13664040075E+02 0.11090463774E+02
 0.89528714670E+01 0.72520105442E+01 0.59638097481E+01 0.50356297961E+01 0.43968961411E+01
 0.47998001762E+01 0.44733794844E+01 0.43204103261E+01 0.43213072846E+01 0.44743011166E+01
 0.47990346983E+01 0.53408527239E+01 0.61661871207E+01 0.73488982598E+01 0.89527741012E+01
 0.11018895356E+02 0.13567946860E+02 0.16611542155E+02 0.20141416642E+02 0.24072141615E+02
 0.28163037760E+02 0.31986215678E+02 0.34990495993E+02 0.36651744276E+02 0.36648447696E+02
 0.34981844310E+02 0.31977324171E+02 0.28161081180E+02 0.24078222229E+02 0.20148099667E+02
 0.16612501743E+02 0.13565585507E+02 0.11018415120E+02 0.89539789779E+01 0.73489387417E+01
 0.61656583253E+01 0.53416200059E+01 0.58933527952E+01 0.54606183791E+01 0.52304409143E+01
 0.51613058512E+01 0.52341880561E+01 0.54607406567E+01 0.58898906910E+01 0.65950986811E+01
 0.76532774251E+01 0.91329791006E+01 0.11089690896E+02 0.13566252116E+02 0.16605578844E+02
 0.20255139672E+02 0.24514115726E+02 0.29220918644E+02 0.33965000001E+02 0.38115842725E+02
 0.40977793767E+02 0.42002831380E+02 0.40977616127E+02 0.38108898399E+02 0.33953998301E+02
 0.29216593036E+02 0.24517253270E+02 0.20256164675E+02 0.16602504562E+02 0.13566687353E+02
 0.11094470617E+02 0.91343153000E+01 0.76502475341E+01 0.65950335602E+01 0.73264430656E+01
 0.67798972090E+01 0.64786739813E+01 0.63538381549E+01 0.63589761866E+01 0.64838495272E+01
 0.67748044759E+01 0.73213225239E+01 0.82148666868E+01 0.95280736798E+01 0.11323497288E+02
 0.13662318346E+02 0.16611277866E+02 0.20256180050E+02 0.24673802563E+02 0.29810526200E+02
 0.35331650816E+02 0.40587049019E+02 0.44753088147E+02 0.47071775911E+02 0.47079958879E+02
 0.44764476245E+02 0.40585455087E+02 0.35324094081E+02 0.29809715019E+02 0.24674735914E+02
 0.20251165893E+02 0.16608604806E+02 0.13669033193E+02 0.11328466255E+02 0.95222502049E+01
 0.82094514314E+01 0.91558021340E+01 0.85140276624E+01 0.81721695279E+01 0.80265648318E+01
 0.79964136183E+01 0.80364163501E+01 0.81717710223E+01 0.85038095131E+01 0.91564628391E+01
 0.10224884404E+02 0.11779878674E+02 0.13893580729E+02 0.16647891127E+02 0.20146105080E+02
 0.24514234256E+02 0.29807194436E+02 0.35817816782E+02 0.41953647953E+02 0.47330216185E+02
 0.50972240254E+02 0.52299720526E+02 0.50991732209E+02 0.47341591561E+02 0.41949665835E+02
 0.35817731168E+02 0.29814980259E+02 0.24513246427E+02 0.20136733799E+02 0.16648808560E+02
 0.13903556767E+02 0.11778711074E+02 0.10213449106E+02 0.11407885150E+02 0.10725778244E+02
 0.10410250348E+02 0.10313567801E+02 0.10313076680E+02 0.10321717534E+02 0.10321923154E+02
 0.10401077976E+02 0.10717140402E+02 0.11417043386E+02 0.12603275635E+02 0.14361436902E+02
 0.16783297574E+02 0.19975561239E+02 0.24076900936E+02 0.29214947630E+02 0.35327164944E+02
 0.41957747852E+02 0.48207682614E+02 0.53144385202E+02 0.55893135937E+02 0.55903928302E+02
 0.53157073357E+02 0.48201647108E+02 0.41950734161E+02 0.35338288560E+02 0.29225788732E+02
 0.24067924686E+02 0.19964871651E+02 0.16790806959E+02 0.14370250575E+02 0.12594592472E+02
 0.14050663474E+02 0.13414321239E+02 0.13278402612E+02 0.13419441253E+02 0.13632689918E+02
 0.13739874300E+02 0.13648155855E+02 0.13419752935E+02 0.13262866528E+02 0.13412996432E+02
 0.14064487880E+02 0.15281114985E+02 0.17177236191E+02 0.19867810449E+02 0.23481268316E+02
 0.28161729125E+02 0.33956094580E+02 0.40589864375E+02 0.47345767250E+02 0.53156342451E+02
 0.57184102244E+02 0.58633654280E+02 0.57191705409E+02 0.53147877660E+02 0.47326846821E+02
 0.40590453870E+02 0.33972749884E+02 0.28162183026E+02 0.23465555991E+02 0.19866723639E+02
 0.17191476462E+02 0.15281297152E+02 0.16966236070E+02 0.16582241606E+02 0.16866432917E+02
 0.17583798713E+02 0.18391641625E+02 0.18930523989E+02 0.18942317782E+02 0.18403969624E+02
 0.17572913827E+02 0.16854265525E+02 0.16592386377E+02 0.16977408765E+02 0.18117417817E+02
 0.20061268590E+02 0.22942101176E+02 0.26885018639E+02 0.31978260447E+02 0.38107132599E+02
 0.44760538663E+02 0.50989700966E+02 0.55906655577E+02 0.58639437536E+02 0.58644344101E+02
 0.55905422426E+02 0.50970778366E+02 0.44748787641E+02 0.38119588220E+02 0.31989115837E+02
 0.26873498663E+02 0.22931956761E+02 0.20073423579E+02 0.18128485991E+02 0.19999742296E+02
 0.20102528865E+02 0.21211325082E+02 0.23117241661E+02 0.25317347884E+02 0.27100680896E+02
 0.27798816928E+02 0.27114741040E+02 0.25317747263E+02 0.23104186904E+02 0.21212460313E+02
 0.20116971643E+02 0.19998987554E+02 0.20901528736E+02 0.22781161992E+02 0.25714785817E+02
 0.29789605833E+02 0.34979208437E+02 0.40971171195E+02 0.47073434188E+02 0.52300012634E+02
 0.55903312716E+02 0.57198846984E+02 0.55916364316E+02 0.52299720526E+02 0.47060927414E+02
 0.40973609284E+02 0.34994775146E+02 0.29789676295E+02 0.25700488842E+02 0.22781750991E+02
 0.20916810458E+02 0.22879851779E+02 0.23755688474E+02 0.26218387058E+02 0.30260590076E+02
 0.35314550345E+02 0.40138164317E+02 0.43139379228E+02 0.43146695926E+02 0.40145087240E+02
 0.35306735223E+02 0.30254149426E+02 0.26227681074E+02 0.23763631448E+02 0.22871399642E+02
 0.23365927086E+02 0.25040469106E+02 0.27836055065E+02 0.31765895567E+02 0.36648411298E+02
 0.42000289032E+02 0.47067672623E+02 0.50970740028E+02 0.53148071333E+02 0.53161852016E+02
 0.50990775394E+02 0.47068503576E+02 0.41994560262E+02 0.36655616968E+02 0.31773393259E+02
 0.27827721386E+02 0.25031652462E+02 0.23373512896E+02 0.25285614391E+02 0.27170397629E+02
 0.31531245365E+02 0.38929670863E+02 0.49175631205E+02 0.60597958021E+02 0.69922270790E+02
 0.73567797161E+02 0.69929770389E+02 0.60596684115E+02 0.49166286411E+02 0.38929509936E+02
 0.31540297628E+02 0.27171480038E+02 0.25277987614E+02 0.25212893916E+02 0.26541218780E+02
 0.28992268836E+02 0.32473133605E+02 0.36656682416E+02 0.40979731164E+02 0.44749848842E+02
 0.47322462541E+02 0.48198486917E+02 0.47338776155E+02 0.44758086929E+02 0.40973240641E+02
 0.36652846122E+02 0.32477120409E+02 0.28990562657E+02 0.26533053401E+02 0.25212994280E+02
 0.26894110499E+02 0.29864533600E+02 0.36446612290E+02 0.48342396359E+02 0.66814845701E+02
 0.90908259864E+02 0.11542699306E+03 0.13143996238E+03 0.13144364362E+03 0.11543042844E+03
 0.90903738523E+02 0.66809941110E+02 0.48345250687E+02 0.36450379958E+02 0.29861370678E+02
 0.26890290266E+02 0.26215796591E+02 0.27065614927E+02 0.28988596693E+02 0.31770494541E+02
 0.34996913263E+02 0.38121494564E+02 0.40586192231E+02 0.41944880011E+02 0.41947056074E+02
 0.40585722380E+02 0.38112170582E+02 0.34987925696E+02 0.31770977575E+02 0.28991806667E+02
 0.27063189200E+02 0.26213326501E+02 0.27460460389E+02 0.31362344607E+02 0.40002097196E+02
 0.56767567041E+02 0.86038807279E+02 0.13079977753E+03 0.18685036470E+03 0.23724463112E+03
 0.25800180640E+03 0.23724799949E+03 0.18685181941E+03 0.13079815965E+03 0.86038039479E+02
 0.56768369484E+02 0.40001326006E+02 0.31360391102E+02 0.27460559554E+02 0.26214271661E+02
 0.26532658810E+02 0.27825636734E+02 0.29789605833E+02 0.31991097482E+02 0.33970839320E+02
 0.35334213428E+02 0.35817816782E+02 0.35328799247E+02 0.33960993158E+02 0.31982966619E+02
 0.29789853499E+02 0.27831970988E+02 0.26536771699E+02 0.26213887102E+02 0.26892784453E+02
 0.31361824926E+02 0.41309700738E+02 0.61867749337E+02 0.10181974413E+03 0.17297173749E+03
 0.28197771645E+03 0.41025354920E+03 0.50235579714E+03 0.50235659645E+03 0.41025532244E+03
 0.28197919554E+03 0.17297219814E+03 0.10181950448E+03 0.61867550808E+02 0.41309976381E+02
 0.31362663809E+02 0.26893836917E+02 0.25212768423E+02 0.25032323481E+02 0.25700878627E+02
 0.26874203325E+02 0.28161603633E+02 0.29224268819E+02 0.29817583951E+02 0.29815399490E+02
 0.29220793151E+02 0.28162061407E+02 0.26879484111E+02 0.25707027302E+02 0.25035573389E+02
 0.25212908839E+02 0.25282205249E+02 0.29863464344E+02 0.40001576334E+02 0.61867501578E+02
 0.10804254369E+03 0.20162828490E+03 0.37403570270E+03 0.63328277228E+03 0.89667408235E+03
 0.10092360385E+04 0.89667205343E+03 0.63328222040E+03 0.37403731500E+03 0.20162923737E+03
 0.10804206591E+03 0.61867676301E+02 0.40002932559E+02 0.29865042822E+02 0.25284941031E+02
 0.23374198204E+02 0.22782768545E+02 0.22931411355E+02 0.23464917023E+02 0.24067705239E+02
 0.24515840809E+02 0.24678801346E+02 0.24516516017E+02 0.24073243461E+02 0.23474151258E+02
 0.22936956957E+02 0.22781214459E+02 0.23369885155E+02 0.22875963064E+02 0.27170648562E+02
 0.36447888199E+02 0.56767608471E+02 0.10181984881E+03 0.20162847052E+03 0.41394965972E+03
 0.80790693007E+03 0.13255831858E+04 0.16564585085E+04 0.16564558031E+04 0.13255792961E+04
 0.80790704513E+03 0.41395144592E+03 0.20162768318E+03 0.10181807579E+03 0.56767776457E+02
 0.36448262001E+02 0.27169925852E+02 0.22878116573E+02 0.20917115604E+02 0.20073512597E+02
 0.19866256264E+02 0.19964811356E+02 0.20137395243E+02 0.20252735453E+02 0.20253585486E+02
 0.20140964302E+02 0.19969866878E+02 0.19866867343E+02 0.20067215678E+02 0.20909960760E+02
 0.19999286401E+02 0.23759496892E+02 0.31535835683E+02 0.48343475950E+02 0.86038224671E+02
 0.17297198006E+03 0.37403611268E+03 0.80790633870E+03 0.15144221985E+04 0.19224571080E+04
 0.17374539471E+04 0.19224543385E+04 0.15144212845E+04 0.80790767304E+03 0.37403570845E+03
 0.17296989056E+03 0.86038039480E+02 0.48343760639E+02 0.31531737659E+02 0.23753178236E+02
 0.19998987554E+02 0.18130289732E+02 0.17191980932E+02 0.16790311177E+02 0.16647891127E+02
 0.16608461178E+02 0.16601572001E+02 0.16608258215E+02 0.16647717917E+02 0.16787263748E+02
 0.17184017618E+02 0.18122786906E+02 0.16970893750E+02 0.20109123507E+02 0.26223817449E+02
 0.38930262700E+02 0.66812030620E+02 0.13079896569E+03 0.28197906426E+03 0.63328257805E+03
 0.13255803029E+04 0.19224552361E+04 0.73343618644E+03 0.73343556084E+03 0.19224552047E+04
 0.13255821663E+04 0.63328353636E+03 0.28197775410E+03 0.13079899092E+03 0.66814929206E+02
 0.38930825888E+02 0.26218094005E+02 0.20101623010E+02 0.16968034895E+02 0.15282430936E+02
 0.14369316648E+02 0.13902528800E+02 0.13668633079E+02 0.13567568067E+02 0.13565529064E+02
 0.13664883729E+02 0.13899894651E+02 0.14367141895E+02 0.15280954995E+02 0.14057340157E+02
 0.16587075845E+02 0.21212336493E+02 0.30258011913E+02 0.49170379316E+02 0.90905748372E+02
 0.18685224623E+03 0.41025558028E+03 0.89667241377E+03 0.16564555212E+04 0.17374527277E+04
 0.73343487051E+03 0.17374524447E+04 0.16564573573E+04 0.89667516233E+03 0.41025544794E+03
 0.18685031706E+03 0.90907410668E+02 0.49176348726E+02 0.30262420544E+02 0.21210957969E+02
 0.16581696556E+02 0.14051245485E+02 0.12594079938E+02 0.11778376329E+02 0.11328496070E+02
 0.11095200084E+02 0.11019997202E+02 0.11091529518E+02 0.11326211753E+02 0.11780506351E+02
 0.12599203391E+02 0.11412052751E+02 0.13413718374E+02 0.16860690049E+02 0.23111424583E+02
 0.35310138834E+02 0.60596103611E+02 0.11542893343E+03 0.23724766238E+03 0.50235676864E+03
 0.10092352066E+04 0.16564564140E+04 0.19224548130E+04 0.19224540331E+04 0.16564560615E+04
 0.10092369314E+04 0.50235761476E+03 0.23724495947E+03 0.11542586349E+03 0.60597576927E+02
 0.35315899151E+02 0.23117326777E+02 0.16864062537E+02 0.13413889242E+02 0.11408740498E+02
 0.10213727572E+02 0.95221820879E+01 0.91338719101E+01 0.89547687565E+01 0.89535474902E+01
 0.91328854803E+01 0.95249191383E+01 0.10218773436E+02 0.91560697521E+01 0.10721095603E+02
 0.13269895229E+02 0.17578581240E+02 0.25318263796E+02 0.40140965423E+02 0.69925071364E+02
 0.13144165652E+03 0.25800227661E+03 0.50235649857E+03 0.89667391611E+03 0.13255827817E+04
 0.15144221985E+04 0.13255804688E+04 0.89667247580E+03 0.50235683452E+03 0.25800180640E+03
 0.13143880861E+03 0.69921210421E+02 0.40137978997E+02 0.25317747264E+02 0.17582440774E+02
 0.13277611268E+02 0.10727498973E+02 0.91564628391E+01 0.82087050306E+01 0.76492705821E+01
 0.73489592877E+01 0.72527044828E+01 0.73481929079E+01 0.76510391528E+01 0.82121877591E+01
 0.73247474572E+01 0.85094817164E+01 0.10405190191E+02 0.13418901674E+02 0.18398400788E+02
 0.27108090456E+02 0.43142670799E+02 0.73567295765E+02 0.13144128450E+03 0.23724597870E+03
 0.41025478942E+03 0.63328468485E+03 0.80790931165E+03 0.80790769339E+03 0.63328198142E+03
 0.41025421457E+03 0.23724756920E+03 0.13144284367E+03 0.73567006300E+02 0.43139215672E+02
 0.27101499221E+02 0.18392488940E+02 0.13418962073E+02 0.10411064535E+02 0.85148643983E+01
 0.73255304436E+01 0.65943078184E+01 0.61658761375E+01 0.59647528023E+01 0.59639956948E+01
 0.61654434701E+01 0.65954252946E+01 0.58919099334E+01 0.67776910292E+01 0.81723746210E+01
 0.10317634537E+02 0.13640685071E+02 0.18936835956E+02 0.27798855602E+02 0.43143461661E+02
 0.69926078139E+02 0.11542804062E+03 0.18684973710E+03 0.28197774830E+03 0.37403711945E+03
 0.41395121390E+03 0.37403630247E+03 0.28197784194E+03 0.18685137148E+03 0.11543066520E+03
 0.69929823985E+02 0.43147650346E+02 0.27799823704E+02 0.18931627961E+02 0.13632404339E+02
 0.10312727457E+02 0.81727777983E+01 0.67798032583E+01 0.58928907581E+01 0.53419545697E+01
 0.50363979176E+01 0.49374596435E+01 0.50357203565E+01 0.53414585002E+01 0.47992736170E+01
 0.54600876077E+01 0.64810269507E+01 0.80314303405E+01 0.10317361212E+02 0.13740089012E+02
 0.18936310399E+02 0.27108355762E+02 0.40142653853E+02 0.60597521976E+02 0.90905222813E+02
 0.13079712418E+03 0.17297032352E+03 0.20162744189E+03 0.20162775934E+03 0.17297133743E+03
 0.13079815588E+03 0.90905113278E+02 0.60597432465E+02 0.40145909879E+02 0.27115239136E+02
 0.18941739367E+02 0.13739348743E+02 0.10311996281E+02 0.80266778846E+01 0.64793763018E+01
 0.54602150997E+01 0.47996109870E+01 0.43971478147E+01 0.42046117510E+01 0.42044609114E+01
 0.43968635914E+01 0.39815744589E+01 0.44734993599E+01 0.52319188236E+01 0.63563474846E+01
 0.79961829439E+01 0.10317169576E+02 0.13639678295E+02 0.18397276004E+02 0.25318263795E+02
 0.35311365565E+02 0.49171881660E+02 0.66813012648E+02 0.86038224669E+02 0.10181862855E+03
 0.10804093714E+03 0.10181928472E+03 0.86038807278E+02 0.66811507479E+02 0.49167071236E+02
 0.35305945306E+02 0.25317347884E+02 0.18402665368E+02 0.13647434658E+02 0.10321938456E+02
 0.79964136183E+01 0.63543113260E+01 0.52301812130E+01 0.44728653491E+01 0.39816387658E+01
 0.37020050998E+01 0.36106478041E+01 0.37018109769E+01 0.33839675824E+01 0.37460987906E+01
 0.43208871520E+01 0.51615505144E+01 0.63567639009E+01 0.80318734030E+01 0.10317552042E+02
 0.13418193306E+02 0.17577500860E+02 0.23110449279E+02 0.30257929418E+02 0.38931661145E+02
 0.48345740538E+02 0.56769080161E+02 0.61867419082E+02 0.61867706338E+02 0.56769796748E+02
 0.48345986008E+02 0.38929588369E+02 0.30252401452E+02 0.23103291473E+02 0.17573026397E+02
 0.13419358759E+02 0.10322845993E+02 0.80369113489E+01 0.63587544428E+01 0.51612233566E+01
 0.43202879333E+01 0.37460275724E+01 0.33840715873E+01 0.32077526489E+01 0.32077241013E+01
 0.29708531777E+01 0.32281220159E+01 0.36692334136E+01 0.43209696465E+01 0.52323653570E+01
 0.64815525077E+01 0.81729348636E+01 0.10405981053E+02 0.13270341762E+02 0.16859797239E+02
 0.21210387614E+02 0.26222501498E+02 0.31536282216E+02 0.36449442384E+02 0.40002736352E+02
 0.41309826229E+02 0.40002543729E+02 0.36450284433E+02 0.31539358801E+02 0.26226658175E+02
 0.21211771615E+02 0.16855743096E+02 0.13263211339E+02 0.10401054652E+02 0.81726160614E+01
 0.64836727637E+01 0.52340012239E+01 0.43215121719E+01 0.36693648190E+01 0.32280911851E+01
 0.29707028626E+01 0.28859136215E+01 0.27257374763E+01 0.28918578262E+01 0.32277606254E+01
 0.37458198946E+01 0.44735268287E+01 0.54599234411E+01 0.67773296387E+01 0.85099111885E+01
 0.10722619867E+02 0.13414972574E+02 0.16586714455E+02 0.20107446166E+02 0.23757676188E+02
 0.27169455767E+02 0.29863102953E+02 0.31361589028E+02 0.31360558784E+02 0.29861222847E+02
 0.27170036238E+02 0.23763598201E+02 0.20116922937E+02 0.16593292818E+02 0.13413959848E+02
 0.10716221156E+02 0.85041250303E+01 0.67752598171E+01 0.54602569886E+01 0.44741199397E+01
 0.37460421541E+01 0.32277385778E+01 0.28916717970E+01 0.27256125676E+01 0.25192854966E+01
 0.25952502990E+01 0.28239568172E+01 0.32098852178E+01 0.37658335176E+01 0.45186259868E+01
 0.55115105300E+01 0.67988223544E+01 0.84312619447E+01 0.10432892312E+02 0.12773456944E+02
 0.15345024577E+02 0.18016746353E+02 0.20548194145E+02 0.22662761911E+02 0.24077359275E+02
 0.24575858043E+02 0.24075796796E+02 0.22659854884E+02 0.20545773430E+02 0.18017511767E+02
 0.15349439889E+02 0.12778639838E+02 0.10435513002E+02 0.84307430186E+01 0.67970388131E+01
 0.55102398968E+01 0.45182163782E+01 0.37658238335E+01 0.32098964854E+01 0.28238966175E+01
 0.25951793744E+01 0.25954819389E+01 0.25953504692E+01 0.27440416343E+01 0.30420290447E+01
 0.34952280966E+01 0.41228165320E+01 0.49608999738E+01 0.60568856284E+01 0.74556587574E+01
 0.91824242831E+01 0.11225576080E+02 0.13521084647E+02 0.15942005515E+02 0.18300182734E+02
 0.20366278281E+02 0.21911693666E+02 0.22747692443E+02 0.22748141068E+02 0.21911592278E+02
 0.20363149143E+02 0.18294056666E+02 0.15936436051E+02 0.13519927269E+02 0.11228994297E+02
 0.91869629361E+01 0.74581580164E+01 0.60571756891E+01 0.49605254733E+01 0.41226348214E+01
 0.34951526216E+01 0.30420321290E+01 0.27442208344E+01 0.28244004606E+01 0.27512994798E+01
 0.28240136405E+01 0.30420710400E+01 0.34071406818E+01 0.39333882102E+01 0.46543984300E+01
 0.56181114801E+01 0.68713734538E+01 0.84424485939E+01 0.10327273324E+02 0.12479892675E+02
 0.14805812417E+02 0.17158574275E+02 0.19343443473E+02 0.21135797600E+02 0.22319010884E+02
 0.22734158425E+02 0.22321989181E+02 0.21139157659E+02 0.19343303237E+02 0.17153361363E+02
 0.14798804057E+02 0.12476221710E+02 0.10328360409E+02 0.84453023062E+01 0.68730838140E+01
 0.56185704838E+01 0.46545167660E+01 0.39332860167E+01 0.34068816441E+01 0.30421645538E+01
 0.32100914245E+01 0.30676274829E+01 0.30674543530E+01 0.32099319466E+01 0.34950777191E+01
 0.39330103428E+01 0.45548400293E+01 0.54107698590E+01 0.65538609340E+01 0.80200879424E+01
 0.98148399369E+01 0.11906981433E+02 0.14225463474E+02 0.16653959476E+02 0.19024541373E+02
 0.21120241736E+02 0.22700656185E+02 0.23553699958E+02 0.23554867074E+02 0.22704564412E+02
 0.21126162984E+02 0.19029029816E+02 0.16654088489E+02 0.14222418058E+02 0.11904181003E+02
 0.98136779498E+01 0.80196142397E+01 0.65534383145E+01 0.54106926334E+01 0.45549940959E+01
 0.39329209378E+01 0.34949199676E+01 0.37658238335E+01 0.35566705517E+01 0.34872720945E+01
 0.35569235516E+01 0.37658917060E+01 0.41222707488E+01 0.46537969385E+01 0.54104649950E+01
 0.64515034122E+01 0.78237280640E+01 0.95448658530E+01 0.11599160665E+02 0.13939260898E+02
 0.16481285784E+02 0.19088072830E+02 0.21553644095E+02 0.23612787666E+02 0.24989790285E+02
 0.25474096480E+02 0.24988188945E+02 0.23612823620E+02 0.21557644518E+02 0.19094384431E+02
 0.16485956565E+02 0.13940096509E+02 0.11597271847E+02 0.95426102228E+01 0.78223106640E+01
 0.64508418125E+01 0.54103004672E+01 0.46540129229E+01 0.41225294840E+01 0.45192902000E+01
 0.42432385552E+01 0.41096273441E+01 0.41104897369E+01 0.42441684956E+01 0.45186069554E+01
 0.49604930885E+01 0.56181123397E+01 0.65530319122E+01 0.78221829917E+01 0.94581870358E+01
 0.11461170393E+02 0.13805475955E+02 0.16442456658E+02 0.19278014086E+02 0.22134320813E+02
 0.24734438326E+02 0.26740037579E+02 0.27837009413E+02 0.27834657288E+02 0.26733909644E+02
 0.24728340389E+02 0.22133446751E+02 0.19282809523E+02 0.16447134447E+02 0.13805643943E+02
 0.11459204453E+02 0.94580216046E+01 0.78231872588E+01 0.65528997113E+01 0.56176668018E+01
 0.49612967305E+01 0.55134586817E+01 0.51698308719E+01 0.49803935396E+01 0.49218260616E+01
 0.49834281568E+01 0.51699527800E+01 0.55106843088E+01 0.60573418968E+01 0.68727281559E+01
 0.80187509124E+01 0.95418125240E+01 0.11459682263E+02 0.13765335283E+02 0.16440359096E+02
 0.19440053980E+02 0.22637142292E+02 0.25771220430E+02 0.28462595439E+02 0.30298264779E+02
 0.30952697712E+02 0.30297903670E+02 0.28456830200E+02 0.25762411606E+02 0.22633820612E+02
 0.19442640030E+02 0.16441110847E+02 0.13762803527E+02 0.11460108135E+02 0.95458290077E+01
 0.80199793186E+01 0.68703688722E+01 0.60573081139E+01 0.68008548266E+01 0.63982320198E+01
 0.61725307392E+01 0.60760143673E+01 0.60798287035E+01 0.61762452132E+01 0.63942595627E+01
 0.67972102791E+01 0.74587173187E+01 0.84455505752E+01 0.98130339909E+01 0.11596146456E+02
 0.13804963702E+02 0.16440777488E+02 0.19500289612E+02 0.22920460850E+02 0.26492153012E+02
 0.29832277118E+02 0.32456649911E+02 0.33913178800E+02 0.33919313642E+02 0.32464693212E+02
 0.29829822001E+02 0.26485555348E+02 0.22920204794E+02 0.19501841240E+02 0.16437124694E+02
 0.13802561472E+02 0.11601285087E+02 0.98172990243E+01 0.84413161529E+01 0.74543042879E+01
 0.84307430186E+01 0.80002093948E+01 0.77828482856E+01 0.76946669582E+01 0.76783877885E+01
 0.77024380119E+01 0.77824703488E+01 0.79920946782E+01 0.84313744961E+01 0.91879342226E+01
 0.10328937139E+02 0.11904089701E+02 0.13939288216E+02 0.16445405827E+02 0.19440184226E+02
 0.22918305244E+02 0.26748665917E+02 0.30592366297E+02 0.33938650376E+02 0.36240756545E+02
 0.37071731979E+02 0.36256369954E+02 0.33947789129E+02 0.30589152896E+02 0.26748440330E+02
 0.22924376385E+02 0.19439421245E+02 0.16438073021E+02 0.13940096509E+02 0.11911973668E+02
 0.10327856566E+02 0.91786727677E+01 0.10428383837E+02 0.10031545133E+02 0.99010375436E+01
 0.99044361471E+01 0.99424335916E+01 0.99497227716E+01 0.99116818602E+01 0.98935881172E+01
 0.10024011088E+02 0.10435568043E+02 0.11229180846E+02 0.12477053446E+02 0.14223768487E+02
 0.16486568404E+02 0.19282003754E+02 0.22633415923E+02 0.26488402174E+02 0.30594912095E+02
 0.34473644838E+02 0.37531461530E+02 0.39230901104E+02 0.39239696530E+02 0.37542299424E+02
 0.34469970496E+02 0.30590011335E+02 0.26496840806E+02 0.22641119916E+02 0.19274606537E+02
 0.16478630174E+02 0.14230082441E+02 0.12483521015E+02 0.11221562568E+02 0.12766935517E+02
 0.12491646540E+02 0.12604834069E+02 0.12894229702E+02 0.13176140466E+02 0.13299451078E+02
 0.13188471325E+02 0.12894520066E+02 0.12592446293E+02 0.12490420392E+02 0.12777718558E+02
 0.13519861025E+02 0.14799830858E+02 0.16655484483E+02 0.19095205382E+02 0.22133908836E+02
 0.25764006038E+02 0.29833273764E+02 0.33951032121E+02 0.37541594684E+02 0.40007134776E+02
 0.40892422407E+02 0.40013285045E+02 0.37535000119E+02 0.33936084808E+02 0.29833808155E+02
 0.25777334713E+02 0.22134350433E+02 0.19082680109E+02 0.16654453568E+02 0.14811012222E+02
 0.13520059694E+02 0.15340775603E+02 0.15386690383E+02 0.15977822660E+02 0.16887500753E+02
 0.17790794063E+02 0.18360163145E+02 0.18369041284E+02 0.17799906773E+02 0.16879075533E+02
 0.15968888517E+02 0.15394712574E+02 0.15348733364E+02 0.15935747620E+02 0.17152744454E+02
 0.19028848554E+02 0.21557925129E+02 0.24728214716E+02 0.28455384813E+02 0.32462503027E+02
 0.36255536337E+02 0.39241838339E+02 0.40896816523E+02 0.40900916553E+02 0.39240891372E+02
 0.36239718064E+02 0.32452212913E+02 0.28465324347E+02 0.24737738217E+02 0.21549177459E+02
 0.19020170590E+02 0.17161855509E+02 0.15945062622E+02 0.18017511767E+02 0.18600587481E+02
 0.20055215737E+02 0.22171303559E+02 0.24461324083E+02 0.26257985736E+02 0.26949757845E+02
 0.26269184737E+02 0.24461691892E+02 0.22161030366E+02 0.20056266308E+02 0.18612156590E+02
 0.18016835430E+02 0.18292756788E+02 0.19342202392E+02 0.21126017824E+02 0.23612869014E+02
 0.26731877095E+02 0.30292815200E+02 0.33914243298E+02 0.37072179047E+02 0.39239161848E+02
 0.40018839097E+02 0.39249371045E+02 0.37071731979E+02 0.33904156851E+02 0.30294684885E+02
 0.26744176600E+02 0.23612823620E+02 0.21114627267E+02 0.19342799394E+02 0.18305094878E+02
 0.20552543637E+02 0.21935258985E+02 0.24747505754E+02 0.28961516133E+02 0.34015388772E+02
 0.38731072476E+02 0.41630779498E+02 0.41637050779E+02 0.38737199190E+02 0.34008990232E+02
 0.28955833272E+02 0.24755074837E+02 0.21942411584E+02 0.20546125906E+02 0.20363001849E+02
 0.21139177785E+02 0.22705496189E+02 0.24989403810E+02 0.27834159200E+02 0.30949579071E+02
 0.33909672727E+02 0.36240442123E+02 0.37534994617E+02 0.37545360901E+02 0.36255514355E+02
 0.33910564886E+02 0.30946097645E+02 0.27840353674E+02 0.24994761924E+02 0.22698329424E+02
 0.21132557592E+02 0.20369616785E+02 0.22666702455E+02 0.25053021612E+02 0.29718542963E+02
 0.37160530356E+02 0.47145992299E+02 0.58071694816E+02 0.66893176955E+02 0.70324164121E+02
 0.66899078930E+02 0.58070517772E+02 0.47138381443E+02 0.37160376588E+02 0.29725881952E+02
 0.25054028818E+02 0.22660701116E+02 0.21911685168E+02 0.22322175853E+02 0.23556532550E+02
 0.25477591538E+02 0.27840759267E+02 0.30299662771E+02 0.32454008881E+02 0.33932480228E+02
 0.34466345534E+02 0.33945497947E+02 0.32460636064E+02 0.30294635992E+02 0.27837913095E+02
 0.25480944051E+02 0.23555232153E+02 0.22315645452E+02 0.21911724703E+02 0.24078565813E+02
 0.27512955190E+02 0.34310321532E+02 0.46016549631E+02 0.63697457298E+02 0.86341231246E+02
 0.10911175668E+03 0.12388193097E+03 0.12388459133E+03 0.10911406581E+03 0.86337588753E+02
 0.63693737314E+02 0.46018691689E+02 0.34312895345E+02 0.27510290475E+02 0.24075794096E+02
 0.22747402806E+02 0.22732804380E+02 0.23553593394E+02 0.24993064721E+02 0.26745986889E+02
 0.28466818116E+02 0.29830334608E+02 0.30584673635E+02 0.30587147710E+02 0.29831230121E+02
 0.28459656282E+02 0.26738002104E+02 0.24992756529E+02 0.23556274035E+02 0.22731219269E+02
 0.22745334337E+02 0.24575858043E+02 0.28880249566E+02 0.37627068677E+02 0.53904519945E+02
 0.81565801042E+02 0.12302611578E+03 0.17417612135E+03 0.21972673720E+03 0.23840616358E+03
 0.21972956860E+03 0.17417747359E+03 0.12302490914E+03 0.81565084209E+02 0.53904964220E+02
 0.37626330026E+02 0.28878670122E+02 0.24575925655E+02 0.22746157988E+02 0.22315328281E+02
 0.22697201784E+02 0.23612869014E+02 0.24738403200E+02 0.25775710359E+02 0.26494007140E+02
 0.26748665917E+02 0.26489861197E+02 0.25768001645E+02 0.24731840306E+02 0.23612787666E+02
 0.22701985444E+02 0.22318507041E+02 0.22745865681E+02 0.24077683128E+02 0.28879709073E+02
 0.38845456723E+02 0.58662333647E+02 0.96117869295E+02 0.16129493297E+03 0.25921461017E+03
 0.37286146816E+03 0.45395968113E+03 0.45396042336E+03 0.37286314756E+03 0.25921606125E+03
 0.16129541508E+03 0.96117656786E+02 0.58662195214E+02 0.38845809221E+02 0.28880518173E+02
 0.24078579540E+02 0.21911531455E+02 0.21132731431E+02 0.21115000900E+02 0.21549277270E+02
 0.22133755123E+02 0.22640868940E+02 0.22926616701E+02 0.22924293290E+02 0.22636988579E+02
 0.22133570844E+02 0.21553770720E+02 0.21120453102E+02 0.21135643887E+02 0.21911714954E+02
 0.22664191134E+02 0.27511952602E+02 0.37626467083E+02 0.58662125666E+02 0.10182971331E+03
 0.18704520893E+03 0.34014003517E+03 0.56589577256E+03 0.79430690854E+03 0.89298331186E+03
 0.79430503535E+03 0.56589525227E+03 0.34014151712E+03 0.18704610618E+03 0.10182931201E+03
 0.58662348928E+02 0.37627759248E+02 0.27513229631E+02 0.22666119466E+02 0.20369601917E+02
 0.19343631614E+02 0.19020354408E+02 0.19082071839E+02 0.19274704450E+02 0.19441613448E+02