unknown system                          
   1.00000000000000     
     3.196922    0.000000    0.000000
    -1.598461    2.768616    0.000000
     0.000000    0.000000    5.205169
   Ga   N 
     2     2
Direct
  0.333333  0.666667  0.999137
  0.666667  0.333333  0.499137
  0.333333  0.666667  0.375863
  0.666667  0.333333  0.875863
 
   32   32   56
 0.72583108604E-04 0.94106911965E-04 0.18741607808E-03 0.50344292419E-03 0.11531640320E-02
 0.25011471249E-02 0.62168328809E-02 0.13109564204E-01 0.29897996457E-01 0.60418581184E-01
 0.11637522343E+00 0.21404877262E+00 0.35841292277E+00 0.54114517853E+00 0.73481007478E+00
 0.88852413748E+00 0.94727400159E+00 0.88896665006E+00 0.73596539111E+00 0.54134169782E+00
 0.35683231615E+00 0.21364082662E+00 0.11761261758E+00 0.60296645723E-01 0.29092498289E-01
 0.13370859558E-01 0.58807258073E-02 0.25198367612E-02 0.10448016301E-02 0.44230800866E-03
 0.18630322522E-03 0.10032206154E-03 0.10032206187E-03 0.98344524664E-04 0.13223128982E-03
 0.13061756668E-03 0.30014654068E-03 0.87468014030E-03 0.16933210353E-02 0.45759775968E-02
 0.87081027451E-02 0.19035808536E-01 0.37958388067E-01 0.66528699085E-01 0.11031392426E+00
 0.17105134605E+00 0.23977845230E+00 0.30071380577E+00 0.33756139486E+00 0.33717747969E+00
 0.30014287190E+00 0.23882123217E+00 0.17135037816E+00 0.11156227250E+00 0.66663743140E-01
 0.36922994554E-01 0.19177859488E-01 0.94055160478E-02 0.44267348727E-02 0.19961741498E-02
 0.89937024284E-03 0.40137250240E-03 0.20891364523E-03 0.11983372689E-03 0.18630322538E-03
 0.18891986461E-03 0.17757949300E-03 0.28379534092E-03 0.36760317128E-03 0.44462052950E-03
 0.10437630651E-02 0.14229219130E-02 0.37473087188E-02 0.62571384875E-02 0.10814495249E-01
 0.21039684852E-01 0.36242604222E-01 0.54853525493E-01 0.77068555561E-01 0.10001474180E+00
 0.11695756866E+00 0.12368401411E+00 0.11748439615E+00 0.10056877290E+00 0.77598761710E-01
 0.54587829904E-01 0.35196770884E-01 0.21012384396E-01 0.11699485768E-01 0.61639916655E-02
 0.30779980204E-02 0.15125270484E-02 0.73414819007E-03 0.40160043852E-03 0.24804029278E-03
 0.20891364504E-03 0.44230800864E-03 0.45687824457E-03 0.47614390104E-03 0.35037120528E-03
 0.28324355140E-03 0.31511753795E-03 0.14054942133E-03 0.65643856991E-03 0.46527781576E-03
 0.19850262092E-02 0.45915041982E-02 0.67022513710E-02 0.10288706669E-01 0.17293614936E-01
 0.25715392980E-01 0.33851110948E-01 0.41233894896E-01 0.45112583106E-01 0.44982844277E-01
 0.40622067122E-01 0.33592888762E-01 0.25269370590E-01 0.17499976836E-01 0.11205258865E-01
 0.67088987608E-02 0.37685503908E-02 0.20566698548E-02 0.10968005067E-02 0.64769325501E-03
 0.44078152248E-03 0.40160043830E-03 0.40137250236E-03 0.10448016301E-02 0.11672927805E-02
 0.11859064786E-02 0.12590241179E-02 0.11884022608E-02 0.10060682022E-02 0.10611570722E-02
 0.68970951693E-03 0.12905147256E-02 0.86700467709E-03 0.55963428529E-03 0.21931269151E-02
 0.44804121260E-02 0.57980957980E-02 0.78926959849E-02 0.11085793706E-01 0.13594686735E-01
 0.15856805259E-01 0.16673492941E-01 0.16114843042E-01 0.14014529144E-01 0.11270873270E-01
 0.82926359669E-02 0.56625690969E-02 0.36185669089E-02 0.22195133024E-02 0.13168049338E-02
 0.85722067602E-03 0.64661447410E-03 0.64769325514E-03 0.73414818974E-03 0.89937024282E-03
 0.25198367608E-02 0.29347913337E-02 0.32078666736E-02 0.30763343914E-02 0.27824947197E-02
 0.23625586761E-02 0.16605542302E-02 0.13858167400E-02 0.45648669936E-03 0.87234134103E-03
 0.15347029552E-02 0.92550358124E-03 0.47853882262E-03 0.18107060184E-02 0.31727243175E-02
 0.39526990179E-02 0.52239956757E-02 0.59446096624E-02 0.64879043782E-02 0.63243516518E-02
 0.58186933615E-02 0.48442075671E-02 0.38162934722E-02 0.27909836515E-02 0.19062828513E-02
 0.12729885612E-02 0.92549384881E-03 0.77074963955E-03 0.85722067578E-03 0.10968005068E-02
 0.15125270483E-02 0.19961741494E-02 0.58807258069E-02 0.72770144420E-02 0.82263983891E-02
 0.87441234816E-02 0.84410850351E-02 0.74671986332E-02 0.62661022838E-02 0.46184122430E-02
 0.37651069316E-02 0.19833214339E-02 0.56159081528E-03 0.90353326689E-03 0.15514415926E-02
 0.80356910449E-03 0.71649366505E-03 0.12360505156E-02 0.14982955475E-02 0.24863174322E-02
 0.31143175488E-02 0.35372191937E-02 0.31962154155E-02 0.25929958407E-02 0.18432080720E-02
 0.13613783394E-02 0.10402909654E-02 0.81237604997E-03 0.73633352854E-03 0.92549384845E-03
 0.13168049336E-02 0.20566698546E-02 0.30779980203E-02 0.44267348722E-02 0.13370859557E-01
 0.17489418576E-01 0.21039344760E-01 0.22898552044E-01 0.22813194746E-01 0.20752333030E-01
 0.17061693842E-01 0.13065711261E-01 0.86747036697E-02 0.62616593099E-02 0.45748851350E-02
 0.22274383497E-02 0.46229681397E-03 0.86171319074E-03 0.99923255151E-03 0.68323871912E-03
 0.13824169607E-02 0.19373966530E-02 0.29124669574E-02 0.34013468876E-02 0.34833633122E-02
 0.28032629257E-02 0.18809532756E-02 0.10095601238E-02 0.63607411664E-03 0.64868064674E-03
 0.81237605004E-03 0.12729885611E-02 0.22195133024E-02 0.37685503905E-02 0.61639916650E-02
 0.94055160472E-02 0.29092498288E-01 0.40677403442E-01 0.51888158380E-01 0.60454748209E-01
 0.63655468196E-01 0.60611902645E-01 0.52442731302E-01 0.41108666921E-01 0.29939455871E-01
 0.19038459667E-01 0.10834460930E-01 0.66769107791E-02 0.44853204291E-02 0.17722886061E-02
 0.71197974845E-03 0.59310883248E-03 0.51977656281E-03 0.17950914179E-02 0.31817641993E-02
 0.48548525205E-02 0.54644800420E-02 0.48042234599E-02 0.32636070531E-02 0.18716724975E-02
 0.85039957031E-03 0.63607411683E-03 0.10402909653E-02 0.19062828515E-02 0.36185669091E-02
 0.67088987610E-02 0.11699485768E-01 0.19177859488E-01 0.60296645721E-01 0.90550712437E-01
 0.12407071515E+00 0.15346962884E+00 0.17098248447E+00 0.17092949925E+00 0.15306826416E+00
 0.12337935153E+00 0.89523242799E-01 0.60414355542E-01 0.37928571179E-01 0.21063390929E-01
 0.10274956694E-01 0.58520837967E-02 0.31450611750E-02 0.13473502466E-02 0.13708201163E-02
 0.18933322282E-02 0.36976552328E-02 0.60787383738E-02 0.84404957688E-02 0.84004788491E-02
 0.61683035524E-02 0.35675011288E-02 0.18716724974E-02 0.10095601242E-02 0.13613783398E-02
 0.27909836518E-02 0.56625690971E-02 0.11205258865E-01 0.21012384396E-01 0.36922994553E-01
 0.11761261758E+00 0.19121621380E+00 0.28319019711E+00 0.37864047095E+00 0.45227010621E+00
 0.48010983059E+00 0.45249371388E+00 0.37924345970E+00 0.28467341038E+00 0.19121518564E+00
 0.11642259208E+00 0.66495828711E-01 0.36280466695E-01 0.17218623037E-01 0.79364750243E-02
 0.38506450912E-02 0.14960083112E-02 0.18502972796E-02 0.31588668677E-02 0.62185766460E-02
 0.98925937091E-02 0.11827805771E-01 0.98927884137E-02 0.61683035522E-02 0.32636070534E-02
 0.18809532760E-02 0.18432080723E-02 0.38162934722E-02 0.82926359672E-02 0.17499976837E-01
 0.35196770884E-01 0.66663743140E-01 0.21364082662E+00 0.37834558436E+00 0.61151443059E+00
 0.88931958322E+00 0.11513374276E+01 0.13134794171E+01 0.13133642452E+01 0.11509665191E+01
 0.88774072317E+00 0.61085896901E+00 0.37978600430E+00 0.21407902443E+00 0.11027021056E+00
 0.54918308675E-01 0.25688950365E-01 0.11161651987E-01 0.52359835044E-02 0.25716940822E-02
 0.29543022848E-02 0.47117660870E-02 0.84494090252E-02 0.11774130922E-01 0.11827805763E-01
 0.84004788482E-02 0.48042234597E-02 0.28032629260E-02 0.25929958404E-02 0.48442075677E-02
 0.11270873270E-01 0.25269370592E-01 0.54587829906E-01 0.11156227251E+00 0.35683231616E+00
 0.69183393740E+00 0.12297110615E+01 0.19705634019E+01 0.28004401378E+01 0.34802871358E+01
 0.37461564244E+01 0.34804885442E+01 0.28017696064E+01 0.19717140860E+01 0.12287891154E+01
 0.69058015417E+00 0.35846913473E+00 0.17098679776E+00 0.77102860047E-01 0.33761697163E-01
 0.13610195531E-01 0.58416603435E-02 0.30615507644E-02 0.35429591139E-02 0.54537259415E-02
 0.84494090247E-02 0.98925937091E-02 0.84404957688E-02 0.54644800422E-02 0.34833633122E-02
 0.31962154158E-02 0.58186933621E-02 0.14014529145E-01 0.33592888764E-01 0.77598761715E-01
 0.17135037816E+00 0.54134169784E+00 0.11515863375E+01 0.22640705186E+01 0.40349861393E+01
 0.63836006119E+01 0.87871061751E+01 0.10356001113E+02 0.10355993513E+02 0.87859649161E+01
 0.63825863298E+01 0.40349162849E+01 0.22657779676E+01 0.11502849668E+01 0.54120568554E+00
 0.23973883933E+00 0.10010450693E+00 0.41224540955E-01 0.15928178413E-01 0.66016176580E-02
 0.33479955231E-02 0.35429591135E-02 0.47117660870E-02 0.62185766460E-02 0.60787383741E-02
 0.48548525207E-02 0.34013468878E-02 0.35372191941E-02 0.63243516525E-02 0.16114843044E-01
 0.40622067126E-01 0.10056877291E+00 0.23882123219E+00 0.73596539116E+00 0.17183912420E+01
 0.37462906616E+01 0.74792037729E+01 0.13329987129E+02 0.20667745838E+02 0.27204633354E+02
 0.29877893421E+02 0.27205554631E+02 0.20668516172E+02 0.13330473017E+02 0.74780489768E+01
 0.37467135873E+01 0.17190736368E+01 0.73477876350E+00 0.30069966434E+00 0.11688762478E+00
 0.45135491303E-01 0.16449094072E-01 0.66016176584E-02 0.30615507646E-02 0.29543022858E-02
 0.31588668678E-02 0.36976552326E-02 0.31817641996E-02 0.29124669577E-02 0.31143175490E-02
 0.64879043785E-02 0.16673492943E-01 0.44982844283E-01 0.11748439616E+00 0.30014287193E+00
 0.88896665013E+00 0.22647148220E+01 0.54638227376E+01 0.12244565371E+02 0.24797880052E+02
 0.43966223064E+02 0.65998193612E+02 0.81529457034E+02 0.81528570768E+02 0.65997681975E+02
 0.43965715831E+02 0.24798454120E+02 0.12244403639E+02 0.54632740233E+01 0.22656697345E+01
 0.88868014898E+00 0.33750466344E+00 0.12376153231E+00 0.45135491304E-01 0.15928178414E-01
 0.58416603437E-02 0.25716940824E-02 0.18502972801E-02 0.18933322283E-02 0.17950914179E-02
 0.19373966531E-02 0.24863174321E-02 0.59446096629E-02 0.15856805262E-01 0.45112583111E-01
 0.12368401412E+00 0.33717747973E+00 0.94727400168E+00 0.26080621027E+01 0.69065525689E+01
 0.17294560121E+02 0.39847086346E+02 0.81529172800E+02 0.14201006290E+03 0.20206904420E+03
 0.22806808531E+03 0.20206951045E+03 0.14201040875E+03 0.81528920453E+02 0.39847267448E+02
 0.17295066885E+02 0.69056034072E+01 0.26083090329E+01 0.94696988051E+00 0.33750466344E+00
 0.11688762478E+00 0.41224540956E-01 0.13610195531E-01 0.52359835053E-02 0.14960083114E-02
 0.13708201163E-02 0.51977656298E-03 0.13824169608E-02 0.14982955481E-02 0.52239956762E-02
 0.13594686737E-01 0.41233894901E-01 0.11695756867E+00 0.33756139489E+00 0.88852413757E+00
 0.26081442899E+01 0.74785890934E+01 0.20667834941E+02 0.53725278581E+02 0.12668614151E+03
 0.25786036178E+03 0.42843768924E+03 0.55681373681E+03 0.55681402925E+03 0.42843742054E+03
 0.25786047671E+03 0.12668597047E+03 0.53724739012E+02 0.20668653687E+02 0.74785363745E+01
 0.26083090329E+01 0.88868014900E+00 0.30069966435E+00 0.10010450694E+00 0.33761697165E-01
 0.11161651988E-01 0.38506450913E-02 0.13473502467E-02 0.59310883248E-03 0.68323871916E-03
 0.12360505162E-02 0.39526990187E-02 0.11085793707E-01 0.33851110952E-01 0.10001474181E+00
 0.30071380580E+00 0.73481007486E+00 0.22657932620E+01 0.69057895315E+01 0.20668692537E+02
 0.59505324332E+02 0.15945451448E+03 0.37648594813E+03 0.72521781673E+03 0.10671487746E+04
 0.12034248988E+04 0.10671484043E+04 0.72521771773E+03 0.37648617018E+03 0.15945491421E+03
 0.59504760522E+02 0.20668653687E+02 0.69056034074E+01 0.22656697346E+01 0.73477876353E+00
 0.23973883935E+00 0.77102860052E-01 0.25688950366E-01 0.79364750248E-02 0.31450611755E-02
 0.71197974861E-03 0.99923255159E-03 0.71649366485E-03 0.31727243182E-02 0.78926959862E-02
 0.25715392984E-01 0.77068555571E-01 0.23977845233E+00 0.54114517859E+00 0.17190522039E+01
 0.54631243525E+01 0.17294837012E+02 0.53724843196E+02 0.15945434563E+03 0.42843745381E+03
 0.94107737675E+03 0.14949284248E+04 0.19020971610E+04 0.19020971350E+04 0.14949290203E+04
 0.94107724147E+03 0.42843705681E+03 0.15945491421E+03 0.53724739014E+02 0.17295066886E+02
 0.54632740236E+01 0.17190736369E+01 0.54120568558E+00 0.17098679778E+00 0.54918308681E-01
 0.17218623039E-01 0.58520837973E-02 0.17722886066E-02 0.86171319097E-03 0.80356910432E-03
 0.18107060185E-02 0.57980957989E-02 0.17293614939E-01 0.54853525500E-01 0.17105134607E+00
 0.35841292281E+00 0.11503449578E+01 0.37467481606E+01 0.12244636317E+02 0.39847299632E+02
 0.12668598669E+03 0.37648657456E+03 0.94107705622E+03 0.16573456067E+04 0.50224765633E+04
 0.16340845810E+05 0.50224764491E+04 0.16573452216E+04 0.94107724148E+03 0.37648617018E+03
 0.12668597048E+03 0.39847267450E+02 0.12244403640E+02 0.37467135875E+01 0.11502849669E+01
 0.35846913476E+00 0.11027021057E+00 0.36280466699E-01 0.10274956695E-01 0.44853204295E-02
 0.46229681432E-03 0.15514415930E-02 0.47853882293E-03 0.44804121266E-02 0.10288706671E-01
 0.36242604227E-01 0.11031392428E+00 0.21404877264E+00 0.69061761501E+00 0.22657345391E+01
 0.74778947990E+01 0.24798424723E+02 0.81528765833E+02 0.25786060445E+03 0.72521719695E+03
 0.14949286300E+04 0.50224766531E+04 0.76790755212E+05 0.76790754873E+05 0.50224764492E+04
 0.14949290203E+04 0.72521771775E+03 0.25786047672E+03 0.81528920457E+02 0.24798454122E+02
 0.74780489773E+01 0.22657779678E+01 0.69058015423E+00 0.21407902445E+00 0.66495828719E-01
 0.21063390932E-01 0.66769107794E-02 0.22274383499E-02 0.90353326826E-03 0.92550358348E-03
 0.21931269155E-02 0.67022513712E-02 0.21039684855E-01 0.66528699093E-01 0.11637522344E+00
 0.37984047682E+00 0.12287203801E+01 0.40350914933E+01 0.13330427546E+02 0.43965901915E+02
 0.14201037110E+03 0.42843747576E+03 0.10671494035E+04 0.19020969954E+04 0.16340845948E+05
 0.76790755211E+05 0.16340845810E+05 0.19020971350E+04 0.10671484043E+04 0.42843742055E+03
 0.14201040876E+03 0.43965715834E+02 0.13330473019E+02 0.40349162852E+01 0.12287891156E+01
 0.37978600434E+00 0.11642259209E+00 0.37928571184E-01 0.10834460931E-01 0.45748851357E-02
 0.56159081564E-03 0.15347029570E-02 0.55963428532E-03 0.45915041980E-02 0.10814495250E-01
 0.37958388070E-01 0.60418581190E-01 0.19121543491E+00 0.61086267105E+00 0.19716235834E+01
 0.63826391300E+01 0.20668349901E+02 0.65997727044E+02 0.20206935677E+03 0.55681348002E+03
 0.12034246140E+04 0.19020969954E+04 0.50224766529E+04 0.50224765632E+04 0.19020971610E+04
 0.12034248988E+04 0.55681402927E+03 0.20206951046E+03 0.65997681979E+02 0.20668516173E+02
 0.63825863303E+01 0.19717140862E+01 0.61085896908E+00 0.19121518566E+00 0.60414355549E-01
 0.19038459670E-01 0.62616593109E-02 0.19833214341E-02 0.87234134131E-03 0.86700467737E-03
 0.19850262094E-02 0.62571384883E-02 0.19035808539E-01 0.29897996459E-01 0.89579088364E-01
 0.28459586363E+00 0.88792328053E+00 0.28016050246E+01 0.87861606750E+01 0.27205467829E+02
 0.81528738926E+02 0.22806874442E+03 0.55681348002E+03 0.10671494035E+04 0.14949286300E+04
 0.16573456067E+04 0.14949284248E+04 0.10671487746E+04 0.55681373682E+03 0.22806808532E+03
 0.81528570773E+02 0.27205554633E+02 0.87859649169E+01 0.28017696067E+01 0.88774072326E+00
 0.28467341041E+00 0.89523242811E-01 0.29939455875E-01 0.86747036710E-02 0.37651069321E-02
 0.45648669940E-03 0.12905147258E-02 0.46527781621E-03 0.37473087188E-02 0.87081027459E-02
 0.13109564205E-01 0.41054623191E-01 0.12344290357E+00 0.37908626130E+00 0.11510809825E+01
 0.34803532590E+01 0.10356101555E+02 0.29877737772E+02 0.81528738925E+02 0.20206935677E+03
 0.42843747574E+03 0.72521719692E+03 0.94107705620E+03 0.94107737673E+03 0.72521781673E+03
 0.42843768924E+03 0.20206904420E+03 0.81529457038E+02 0.29877893423E+02 0.10355993514E+02
 0.34804885445E+01 0.11509665192E+01 0.37924345974E+00 0.12337935154E+00 0.41108666927E-01
 0.13065711263E-01 0.46184122435E-02 0.13858167402E-02 0.68970951695E-03 0.65643857023E-03
 0.14229219129E-02 0.45759775972E-02 0.62168328811E-02 0.17133917032E-01 0.52347550154E-01
 0.15327691410E+00 0.45232105534E+00 0.13135955021E+01 0.37459581670E+01 0.10356101555E+02
 0.27205467829E+02 0.65997727042E+02 0.14201037110E+03 0.25786060443E+03 0.37648657455E+03
 0.42843745379E+03 0.37648594812E+03 0.25786036178E+03 0.14201006290E+03 0.65998193614E+02
 0.27204633355E+02 0.10356001114E+02 0.37461564247E+01 0.13133642453E+01 0.45249371393E+00
 0.15306826418E+00 0.52442731309E-01 0.17061693845E-01 0.62661022846E-02 0.16605542304E-02
 0.10611570722E-02 0.14054942192E-03 0.10437630652E-02 0.16933210354E-02 0.25011471251E-02
 0.73190583644E-02 0.20913706130E-01 0.60350146983E-01 0.17112093565E+00 0.47987226506E+00
 0.13135955021E+01 0.34803532589E+01 0.87861606747E+01 0.20668349900E+02 0.43965901913E+02
 0.81528765828E+02 0.12668598668E+03 0.15945434562E+03 0.15945451448E+03 0.12668614150E+03
 0.81529172800E+02 0.43966223065E+02 0.20667745839E+02 0.87871061755E+01 0.34802871361E+01
 0.13134794172E+01 0.48010983063E+00 0.17092949927E+00 0.60611902653E-01 0.20752333033E-01
 0.74671986342E-02 0.23625586763E-02 0.10060682022E-02 0.31511753835E-03 0.44462052930E-03
 0.87468014003E-03 0.11531640319E-02 0.28332562883E-02 0.83677590379E-02 0.22987479159E-01
 0.63568235562E-01 0.17112093565E+00 0.45232105533E+00 0.11510809824E+01 0.28016050244E+01
 0.63826391296E+01 0.13330427545E+02 0.24798424721E+02 0.39847299629E+02 0.53724843193E+02
 0.59505324328E+02 0.53725278579E+02 0.39847086345E+02 0.24797880052E+02 0.13329987129E+02
 0.63836006121E+01 0.28004401379E+01 0.11513374276E+01 0.45227010625E+00 0.17098248448E+00
 0.63655468203E-01 0.22813194749E-01 0.84410850363E-02 0.27824947198E-02 0.11884022609E-02
 0.28324355185E-03 0.36760317149E-03 0.30014654077E-03 0.50344292404E-03 0.11093354757E-02
 0.32308981665E-02 0.85191444986E-02 0.22987479159E-01 0.60350146982E-01 0.15327691410E+00
 0.37908626128E+00 0.88792328048E+00 0.19716235833E+01 0.40350914930E+01 0.74778947984E+01
 0.12244636316E+02 0.17294837010E+02 0.20668692535E+02 0.20667834939E+02 0.17294560121E+02
 0.12244565370E+02 0.74792037728E+01 0.40349861393E+01 0.19705634020E+01 0.88931958327E+00
 0.37864047097E+00 0.15346962886E+00 0.60454748215E-01 0.22898552047E-01 0.87441234828E-02
 0.30763343917E-02 0.12590241182E-02 0.35037120539E-03 0.28379534086E-03 0.13061756646E-03
 0.18741607801E-03 0.45326052682E-03 0.12145698410E-02 0.32308981663E-02 0.83677590379E-02
 0.20913706129E-01 0.52347550153E-01 0.12344290356E+00 0.28459586361E+00 0.61086267100E+00
 0.12287203800E+01 0.22657345389E+01 0.37467481603E+01 0.54631243520E+01 0.69057895309E+01
 0.74785890928E+01 0.69065525685E+01 0.54638227373E+01 0.37462906615E+01 0.22640705186E+01
 0.12297110615E+01 0.61151443061E+00 0.28319019712E+00 0.12407071516E+00 0.51888158385E-01
 0.21039344762E-01 0.82263983902E-02 0.32078666737E-02 0.11859064786E-02 0.47614390085E-03
 0.17757949318E-03 0.13223128980E-03 0.94106911932E-04 0.19700252457E-03 0.45326052682E-03
 0.11093354759E-02 0.28332562884E-02 0.73190583641E-02 0.17133917031E-01 0.41054623188E-01
 0.89579088358E-01 0.19121543490E+00 0.37984047679E+00 0.69061761494E+00 0.11503449577E+01
 0.17190522037E+01 0.22657932618E+01 0.26081442896E+01 0.26080621025E+01 0.22647148218E+01
 0.17183912419E+01 0.11515863375E+01 0.69183393739E+00 0.37834558437E+00 0.19121621381E+00
 0.90550712442E-01 0.40677403445E-01 0.17489418578E-01 0.72770144431E-02 0.29347913339E-02
 0.11672927804E-02 0.45687824432E-03 0.18891986477E-03 0.98344524699E-04 0.75654121298E-04
 0.85932897939E-04 0.18582392088E-03 0.46593517999E-03 0.11490552921E-02 0.24127037281E-02
 0.60405103061E-02 0.12579616204E-01 0.28546827041E-01 0.57723789644E-01 0.11059042965E+00
 0.20290653135E+00 0.33928560480E+00 0.51118792839E+00 0.69273396752E+00 0.83653300978E+00
 0.89145974892E+00 0.83701807582E+00 0.69378409306E+00 0.51115847252E+00 0.33764351650E+00
 0.20266766720E+00 0.11185131119E+00 0.57514969215E-01 0.27823384094E-01 0.12821191777E-01
 0.56572811514E-02 0.24266151850E-02 0.10094024370E-02 0.42499742414E-03 0.18412406275E-03
 0.93297744647E-04 0.93297744794E-04 0.99833942815E-04 0.12564031037E-03 0.14753453593E-03
 0.25867553871E-03 0.83719558452E-03 0.15703697464E-02 0.43891251329E-02 0.83952524881E-02
 0.18163089654E-01 0.36336750058E-01 0.63519574107E-01 0.10488060067E+00 0.16228556612E+00
 0.22720211439E+00 0.28472392020E+00 0.31947837968E+00 0.31905323139E+00 0.28417567336E+00
 0.22639704446E+00 0.16270863140E+00 0.10613266982E+00 0.63570837958E-01 0.35268673803E-01
 0.18361979424E-01 0.90249980365E-02 0.42519913589E-02 0.19243763404E-02 0.86790211243E-03
 0.39100556762E-03 0.19957041834E-03 0.11982797180E-03 0.18412406288E-03 0.17977661290E-03
 0.17385578634E-03 0.25393460505E-03 0.38479408853E-03 0.44110720919E-03 0.10682736926E-02
 0.13841490467E-02 0.35740988852E-02 0.60554378979E-02 0.10316411397E-01 0.20080321669E-01
 0.34679061916E-01 0.52418620057E-01 0.73521755639E-01 0.95257414807E-01 0.11129335636E+00
 0.11770879636E+00 0.11181455648E+00 0.95756503742E-01 0.73942269886E-01 0.52080164604E-01
 0.33614367777E-01 0.20128203055E-01 0.11224105003E-01 0.59248446709E-02 0.29696243900E-02
 0.14588268946E-02 0.71035861363E-03 0.38641671410E-03 0.24307438447E-03 0.19957041828E-03
 0.42499742445E-03 0.44432836413E-03 0.45990682611E-03 0.36062258323E-03 0.24854384601E-03
 0.29141223019E-03 0.77995259408E-04 0.62433702607E-03 0.48229894421E-03 0.18873097595E-02
 0.44691642027E-02 0.64754374928E-02 0.98364976462E-02 0.16499742653E-01 0.24541866386E-01
 0.32316821325E-01 0.39294517995E-01 0.42924477934E-01 0.42826901061E-01 0.38717209718E-01
 0.32079118076E-01 0.24183138063E-01 0.16789309824E-01 0.10730679829E-01 0.64424476197E-02
 0.36258506344E-02 0.19757251040E-02 0.10596123545E-02 0.62545072636E-03 0.42917212276E-03
 0.38641671366E-03 0.39100556774E-03 0.10094024369E-02 0.11264519507E-02 0.11423600440E-02
 0.11940292255E-02 0.11685638456E-02 0.99042147459E-03 0.10824612646E-02 0.67855068100E-03
 0.12128913446E-02 0.85324669450E-03 0.48903365076E-03 0.21004259983E-02 0.43293370818E-02
 0.56223991475E-02 0.76472569110E-02 0.10532671124E-01 0.12981535569E-01 0.15252503944E-01
 0.16024361497E-01 0.15456953748E-01 0.13385029766E-01 0.10735644901E-01 0.79088101377E-02
 0.54708818233E-02 0.34815568053E-02 0.21393988437E-02 0.12775926485E-02 0.82922802899E-03
 0.62560880583E-03 0.62545072647E-03 0.71035861326E-03 0.86790211246E-03 0.24266151844E-02
 0.28256149244E-02 0.30899419015E-02 0.29854212122E-02 0.26579639865E-02 0.22557752270E-02
 0.15383295693E-02 0.13304303882E-02 0.47133490477E-03 0.84776579872E-03 0.15251033401E-02
 0.90478577921E-03 0.42026517648E-03 0.17593203024E-02 0.28815298125E-02 0.37476336642E-02
 0.51128574825E-02 0.56381976982E-02 0.60828296047E-02 0.59250552995E-02 0.55757396013E-02
 0.46879671347E-02 0.36561378088E-02 0.25961625209E-02 0.18441040885E-02 0.12261760541E-02
 0.88762343710E-03 0.74413612256E-03 0.82922802898E-03 0.10596123545E-02 0.14588268946E-02
 0.19243763402E-02 0.56572811509E-02 0.69849662460E-02 0.79002925359E-02 0.83630448230E-02
 0.81283331111E-02 0.71924510990E-02 0.60922805917E-02 0.44446223675E-02 0.35967028721E-02
 0.18905651115E-02 0.50114079187E-03 0.87669170310E-03 0.15306281669E-02 0.78371536297E-03
 0.65379205818E-03 0.12625869329E-02 0.13471820347E-02 0.18884650282E-02 0.20808522080E-02
 0.23088610311E-02 0.21352290000E-02 0.19873205742E-02 0.16996712789E-02 0.13460726384E-02
 0.92606825309E-03 0.77805173567E-03 0.72608346011E-03 0.88762343694E-03 0.12775926482E-02
 0.19757251038E-02 0.29696243900E-02 0.42519913583E-02 0.12821191776E-01 0.16749162743E-01
 0.20148138713E-01 0.21941687672E-01 0.21817335549E-01 0.19831424357E-01 0.16273534625E-01
 0.12514589618E-01 0.83653074873E-02 0.60467896987E-02 0.44566924305E-02 0.21163870223E-02
 0.42320017885E-03 0.83214628196E-03 0.81579792309E-03 0.71084782218E-03 0.10314644913E-02
 0.75724381912E-03 0.94537298935E-03 0.94933909890E-03 0.10514467929E-02 0.83182656181E-03
 0.71544851596E-03 0.67122243178E-03 0.66044077416E-03 0.53797564777E-03 0.77805173577E-03
 0.12261760540E-02 0.21393988435E-02 0.36258506344E-02 0.59248446705E-02 0.90249980357E-02
 0.27823384092E-01 0.38850862642E-01 0.49513451124E-01 0.57618329835E-01 0.60722136411E-01
 0.57847321601E-01 0.50136172052E-01 0.39273150069E-01 0.28593913900E-01 0.18169674208E-01
 0.10340941269E-01 0.64515040677E-02 0.43503794572E-02 0.16913604370E-02 0.67093614372E-03
 0.61488406975E-03 0.90922834715E-04 0.28690909434E-03 0.48805419101E-03 0.10437359471E-02
 0.11249650883E-02 0.99358183331E-03 0.57085089992E-03 0.33801602603E-03 0.43046420964E-03
 0.66044077435E-03 0.92606825316E-03 0.18441040886E-02 0.34815568056E-02 0.64424476196E-02
 0.11224105003E-01 0.18361979423E-01 0.57514969213E-01 0.86211274173E-01 0.11799597478E+00
 0.14583941555E+00 0.16233667073E+00 0.16223787112E+00 0.14530417262E+00 0.11729387068E+00
 0.85288656420E-01 0.57712954421E-01 0.36303254658E-01 0.20106414015E-01 0.98084464792E-02
 0.56779557541E-02 0.28808579212E-02 0.13398923464E-02 0.10390522164E-02 0.34804169638E-03
 0.68513905069E-03 0.10879548526E-02 0.16182323479E-02 0.15602658846E-02 0.11832776521E-02
 0.55922855938E-03 0.33801602589E-03 0.67122243193E-03 0.13460726387E-02 0.25961625209E-02
 0.54708818234E-02 0.10730679829E-01 0.20128203054E-01 0.35268673803E-01 0.11185131119E+00
 0.18150101811E+00 0.26824965308E+00 0.35814061756E+00 0.42747993736E+00 0.45374672056E+00
 0.42783234953E+00 0.35885028564E+00 0.26962889334E+00 0.18134288455E+00 0.11062512026E+00
 0.63505434177E-01 0.34696792630E-01 0.16465824208E-01 0.76426024081E-02 0.36645915557E-02
 0.13506834375E-02 0.69371124178E-03 0.46391892909E-03 0.12421547128E-02 0.17481877558E-02
 0.20558127380E-02 0.17609168058E-02 0.11832776523E-02 0.57085090009E-03 0.71544851673E-03
 0.16996712790E-02 0.36561378088E-02 0.79088101377E-02 0.16789309826E-01 0.33614367778E-01
 0.63570837959E-01 0.20266766720E+00 0.35788766925E+00 0.57701946407E+00 0.83733527970E+00
 0.10821316311E+01 0.12335405228E+01 0.12333406011E+01 0.10816229861E+01 0.83573226344E+00
 0.57660376190E+00 0.35945397246E+00 0.20292627848E+00 0.10484676623E+00 0.52469334619E-01
 0.24509882223E-01 0.10647644437E-01 0.50927982907E-02 0.19517465424E-02 0.99022700380E-03
 0.88967547549E-03 0.16271974000E-02 0.19942284125E-02 0.20558127362E-02 0.15602658843E-02
 0.99358183309E-03 0.83182656226E-03 0.19873205742E-02 0.46879671352E-02 0.10735644901E-01
 0.24183138064E-01 0.52080164606E-01 0.10613266982E+00 0.33764351651E+00 0.65234037144E+00
 0.11554714299E+01 0.18459613714E+01 0.26169590410E+01 0.32469923367E+01 0.34935325831E+01
 0.32472956939E+01 0.26184074791E+01 0.18469786677E+01 0.11542116802E+01 0.65131063967E+00
 0.33934430953E+00 0.16221510911E+00 0.73577583161E-01 0.32200376731E-01 0.12985717502E-01
 0.55978290087E-02 0.19999869236E-02 0.11202393518E-02 0.10985612480E-02 0.16271974005E-02
 0.17481877576E-02 0.16182323475E-02 0.11249650884E-02 0.10514467932E-02 0.21352290004E-02
 0.55757396021E-02 0.13385029767E-01 0.32079118079E-01 0.73942269891E-01 0.16270863141E+00
 0.51115847254E+00 0.10824457055E+01 0.21192035011E+01 0.37604565854E+01 0.59278548962E+01
 0.81366751148E+01 0.95758690485E+01 0.95758053170E+01 0.81354602325E+01 0.59267692749E+01
 0.37608000120E+01 0.21208628953E+01 0.10808980124E+01 0.51124024835E+00 0.22716556268E+00
 0.95335872620E-01 0.39333118906E-01 0.15248175430E-01 0.62258491973E-02 0.20916863462E-02
 0.11202393512E-02 0.88967547538E-03 0.12421547125E-02 0.10879548528E-02 0.10437359468E-02
 0.94933909872E-03 0.23088610315E-02 0.59250553007E-02 0.15456953749E-01 0.38717209722E-01
 0.95756503749E-01 0.22639704447E+00 0.69378409310E+00 0.16113962952E+01 0.34933820795E+01
 0.69350872558E+01 0.12296703815E+02 0.18983050820E+02 0.24913619728E+02 0.27334115220E+02
 0.24914583089E+02 0.18983892419E+02 0.12297002909E+02 0.69336832388E+01 0.34941576636E+01
 0.16118780819E+01 0.69269555650E+00 0.28472837198E+00 0.11117244058E+00 0.43018110395E-01
 0.15772408634E-01 0.62258491976E-02 0.19999869239E-02 0.99022700510E-03 0.46391892920E-03
 0.68513905103E-03 0.48805419112E-03 0.94537298935E-03 0.20808522079E-02 0.60828296053E-02
 0.16024361499E-01 0.42826901066E-01 0.11181455649E+00 0.28417567338E+00 0.83701807588E+00
 0.21198036291E+01 0.50797726622E+01 0.11303635669E+02 0.22732637352E+02 0.40046153098E+02
 0.59817999658E+02 0.73696637308E+02 0.73695670264E+02 0.59817520904E+02 0.40045666268E+02
 0.22733478674E+02 0.11303291611E+02 0.50792664796E+01 0.21207784242E+01 0.83665435180E+00
 0.31949075711E+00 0.11770017050E+00 0.43018110395E-01 0.15248175431E-01 0.55978290090E-02
 0.19517465428E-02 0.69371124098E-03 0.34804169667E-03 0.28690909443E-03 0.75724381898E-03
 0.18884650281E-02 0.56381976989E-02 0.15252503946E-01 0.42924477939E-01 0.11770879637E+00
 0.31905323142E+00 0.89145974900E+00 0.24385007581E+01 0.64086019562E+01 0.15913142581E+02
 0.36336410757E+02 0.73696474465E+02 0.12741614859E+03 0.18042685296E+03 0.20330484873E+03
 0.18042732915E+03 0.12741641910E+03 0.73696107868E+02 0.36336622151E+02 0.15913648683E+02
 0.64076072299E+01 0.24388311367E+01 0.89104928356E+00 0.31949075711E+00 0.11117244058E+00
 0.39333118908E-01 0.12985717503E-01 0.50927982914E-02 0.13506834377E-02 0.10390522166E-02
 0.90922834914E-04 0.10314644913E-02 0.13471820351E-02 0.51128574829E-02 0.12981535571E-01
 0.39294518000E-01 0.11129335637E+00 0.31947837972E+00 0.83653300986E+00 0.24385901356E+01
 0.69342388104E+01 0.18983191475E+02 0.48817920883E+02 0.11384420624E+03 0.22948258689E+03
 0.37895064256E+03 0.49144072998E+03 0.49144107710E+03 0.37895040666E+03 0.22948281201E+03
 0.11384398173E+03 0.48817428191E+02 0.18984060137E+02 0.69341254528E+01 0.24388311367E+01
 0.83665435182E+00 0.28472837199E+00 0.95335872625E-01 0.32200376733E-01 0.10647644438E-01
 0.36645915554E-02 0.13398923464E-02 0.61488406951E-03 0.71084782227E-03 0.12625869333E-02
 0.37476336648E-02 0.10532671125E-01 0.32316821329E-01 0.95257414819E-01 0.28472392023E+00
 0.69273396759E+00 0.21208821654E+01 0.64078506744E+01 0.18984071153E+02 0.54002188471E+02
 0.14284211362E+03 0.33346554233E+03 0.63974013073E+03 0.94719376360E+03 0.10738387817E+04
 0.94719329542E+03 0.63974000341E+03 0.33346577075E+03 0.14284250282E+03 0.54001540896E+02
 0.18984060138E+02 0.64076072301E+01 0.21207784243E+01 0.69269555653E+00 0.22716556270E+00
 0.73577583166E-01 0.24509882224E-01 0.76426024088E-02 0.28808579219E-02 0.67093614391E-03