unknown system                          
   1.00000000000000     
     3.196922    0.000000    0.000000
    -1.598461    2.768616    0.000000
     0.000000    0.000000    5.205169
   Ga   N 
     2     2
Direct
  0.333333  0.666667  0.999137
  0.666667  0.333333  0.499137
  0.333333  0.666667  0.375863
  0.666667  0.333333  0.875863
 
   32   32   56
 0.43563372308E+01 0.44288174961E+01 0.46525256880E+01 0.50399313871E+01 0.56119213766E+01
 0.63954629957E+01 0.74075310527E+01 0.87111405680E+01 0.10272430246E+02 0.12167560453E+02
 0.14374461155E+02 0.16690959281E+02 0.19188686909E+02 0.21612119268E+02 0.23632915661E+02
 0.24978265125E+02 0.25460131235E+02 0.24971321540E+02 0.23614687534E+02 0.21601114838E+02
 0.19213856051E+02 0.16709277154E+02 0.14344325459E+02 0.12171233287E+02 0.10287128947E+02
 0.87042706391E+01 0.74157093603E+01 0.63942205748E+01 0.56137277424E+01 0.50411825102E+01
 0.46540065900E+01 0.44285996076E+01 0.44285996076E+01 0.44292277545E+01 0.45600434849E+01
 0.48284510824E+01 0.52501379835E+01 0.58470821994E+01 0.66572236002E+01 0.76810118246E+01
 0.89870844322E+01 0.10539301763E+02 0.12328400114E+02 0.14382821117E+02 0.16558043917E+02
 0.18632860437E+02 0.20449153317E+02 0.21900926981E+02 0.22676193973E+02 0.22683470700E+02
 0.21909208232E+02 0.20470093620E+02 0.18633545833E+02 0.16528192912E+02 0.14380073718E+02
 0.12351521340E+02 0.10534263273E+02 0.89762827849E+01 0.76845411167E+01 0.66503517491E+01
 0.58469340716E+01 0.52488673917E+01 0.48262609022E+01 0.45592439188E+01 0.46540065900E+01
 0.45974202381E+01 0.46522169777E+01 0.48245004046E+01 0.51282864461E+01 0.55853650729E+01
 0.62151301298E+01 0.70732221385E+01 0.81549118809E+01 0.95242932542E+01 0.11183973508E+02
 0.13057389095E+02 0.15107574231E+02 0.17252705025E+02 0.19283177958E+02 0.20953893432E+02
 0.22066172930E+02 0.22448311414E+02 0.22057704582E+02 0.20941373747E+02 0.19268027105E+02
 0.17260894652E+02 0.15129507561E+02 0.13055880453E+02 0.11166517120E+02 0.95272086500E+01
 0.81651821456E+01 0.70708940782E+01 0.62223739426E+01 0.55855644168E+01 0.51304138665E+01
 0.48262609022E+01 0.50411825101E+01 0.49434928220E+01 0.49450685575E+01 0.50440877355E+01
 0.52506491904E+01 0.55870383802E+01 0.60913896130E+01 0.67825470370E+01 0.77340873611E+01
 0.89528644673E+01 0.10476853191E+02 0.12353468148E+02 0.14517276129E+02 0.16836023448E+02
 0.19161944972E+02 0.21270472306E+02 0.22879020418E+02 0.23763049247E+02 0.23764100639E+02
 0.22891802192E+02 0.21281163189E+02 0.19168521013E+02 0.16829277825E+02 0.14500647082E+02
 0.12354279537E+02 0.10492783734E+02 0.89506226976E+01 0.77249144810E+01 0.67827845231E+01
 0.60846852828E+01 0.55855644168E+01 0.52488673917E+01 0.56137277423E+01 0.54867074034E+01
 0.54449770522E+01 0.54835445366E+01 0.56108257989E+01 0.58452435140E+01 0.62148900705E+01
 0.67820561682E+01 0.75761122776E+01 0.86890405846E+01 0.10168495479E+02 0.12020659019E+02
 0.14275189097E+02 0.16899756189E+02 0.19709525039E+02 0.22446808590E+02 0.24789363717E+02
 0.26367698597E+02 0.26929136920E+02 0.26362577600E+02 0.24776529953E+02 0.22441802471E+02
 0.19705357938E+02 0.16903112905E+02 0.14290850567E+02 0.12019288479E+02 0.10154418541E+02
 0.86894489349E+01 0.75856894528E+01 0.67827845231E+01 0.62223739426E+01 0.58469340715E+01
 0.63942205748E+01 0.62531350580E+01 0.61936390670E+01 0.61952690017E+01 0.62565488167E+01
 0.63975158025E+01 0.66579241641E+01 0.70736173822E+01 0.77343619840E+01 0.86889529486E+01
 0.10038333298E+02 0.11891143384E+02 0.14276571106E+02 0.17156200234E+02 0.20453982521E+02
 0.23927907154E+02 0.27168124100E+02 0.29721080721E+02 0.31129357066E+02 0.31133660949E+02
 0.29726701878E+02 0.27177752498E+02 0.23930124453E+02 0.20458824857E+02 0.17153659053E+02
 0.14262663274E+02 0.11891475790E+02 0.10052377390E+02 0.86894489349E+01 0.77249144810E+01
 0.70708940782E+01 0.66503517491E+01 0.74157093603E+01 0.72795927199E+01 0.72181354143E+01
 0.72001790069E+01 0.72166291911E+01 0.72750008853E+01 0.74064396487E+01 0.76803518598E+01
 0.81546385063E+01 0.89527737949E+01 0.10168403699E+02 0.11891502297E+02 0.14255969927E+02
 0.17343222582E+02 0.21080211540E+02 0.25269660265E+02 0.29521228546E+02 0.33247730234E+02
 0.35832920198E+02 0.36756083427E+02 0.35827552894E+02 0.33244152484E+02 0.29513701127E+02
 0.25267315012E+02 0.21076544433E+02 0.17343464182E+02 0.14269983182E+02 0.11891475790E+02
 0.10154418541E+02 0.89506226976E+01 0.81651821456E+01 0.76845411167E+01 0.87042706390E+01
 0.86027633749E+01 0.85886927129E+01 0.85979036587E+01 0.85970846006E+01 0.85912858099E+01
 0.86140206225E+01 0.87119706559E+01 0.89877809130E+01 0.95241620786E+01 0.10477342704E+02
 0.12020196680E+02 0.14276747178E+02 0.17342398589E+02 0.21308155152E+02 0.26051729133E+02
 0.31204300117E+02 0.36188259798E+02 0.40187628792E+02 0.42434483314E+02 0.42435569670E+02
 0.40192245155E+02 0.36189766836E+02 0.31212449760E+02 0.26052479573E+02 0.21312223021E+02
 0.17343464183E+02 0.14262663274E+02 0.12019288480E+02 0.10492783734E+02 0.95272086500E+01
 0.89762827849E+01 0.10287128947E+02 0.10270209292E+02 0.10352805133E+02 0.10443508002E+02
 0.10483961475E+02 0.10444045943E+02 0.10343997216E+02 0.10257434063E+02 0.10271565719E+02
 0.10539018541E+02 0.11183789401E+02 0.12353395745E+02 0.14275225204E+02 0.17156798531E+02
 0.21080219585E+02 0.26053019340E+02 0.31841526870E+02 0.37876389002E+02 0.43308954536E+02
 0.47081820527E+02 0.48451572097E+02 0.47080921978E+02 0.43305728162E+02 0.37874532824E+02
 0.31834312823E+02 0.26052479573E+02 0.21076544433E+02 0.17153659053E+02 0.14290850567E+02
 0.12354279537E+02 0.11166517120E+02 0.10534263273E+02 0.12171233287E+02 0.12319979323E+02
 0.12625104043E+02 0.12919418379E+02 0.13088963972E+02 0.13089096782E+02 0.12923280681E+02
 0.12637201205E+02 0.12344504314E+02 0.12167933323E+02 0.12329052588E+02 0.13056999459E+02
 0.14518089031E+02 0.16898563473E+02 0.20454547421E+02 0.25268077125E+02 0.31204555481E+02
 0.37874146857E+02 0.44406662593E+02 0.49730533981E+02 0.52731569510E+02 0.52732030040E+02
 0.49729997203E+02 0.44410978331E+02 0.37874532824E+02 0.31212449760E+02 0.25267315012E+02
 0.20458824857E+02 0.16903112906E+02 0.14500647083E+02 0.13055880453E+02 0.12351521340E+02
 0.14344325459E+02 0.14766306375E+02 0.15439313597E+02 0.16149430844E+02 0.16675971234E+02
 0.16867852496E+02 0.16672739246E+02 0.16143081691E+02 0.15411558776E+02 0.14757612016E+02
 0.14373434589E+02 0.14383121667E+02 0.15106850550E+02 0.16836553406E+02 0.19709574619E+02
 0.23928808314E+02 0.29521364261E+02 0.36190160311E+02 0.43309252605E+02 0.49730535111E+02
 0.54282310889E+02 0.55927915237E+02 0.54283081208E+02 0.49729997203E+02 0.43305728162E+02
 0.36189766836E+02 0.29513701128E+02 0.23930124453E+02 0.19705357939E+02 0.16829277825E+02
 0.15129507561E+02 0.14380073718E+02 0.16709277154E+02 0.17635457139E+02 0.18968986325E+02
 0.20425375474E+02 0.21663989391E+02 0.22383515475E+02 0.22384334537E+02 0.21669945827E+02
 0.20446435469E+02 0.18989120583E+02 0.17613350434E+02 0.16691357432E+02 0.16558388855E+02
 0.17252731126E+02 0.19161939527E+02 0.22445693817E+02 0.27168494691E+02 0.33245513300E+02
 0.40187423018E+02 0.47081818052E+02 0.52730929371E+02 0.55929965752E+02 0.55927915237E+02
 0.52732030040E+02 0.47080921978E+02 0.40192245155E+02 0.33244152485E+02 0.27177752498E+02
 0.22441802472E+02 0.19168521014E+02 0.17260894652E+02 0.16528192912E+02 0.19213856052E+02
 0.20816140982E+02 0.23221580412E+02 0.26051874188E+02 0.28795756477E+02 0.30807565409E+02
 0.31552519049E+02 0.30805423936E+02 0.28775173668E+02 0.26036141962E+02 0.23224397428E+02
 0.20844808148E+02 0.19187609977E+02 0.18633405980E+02 0.19282052571E+02 0.21272484856E+02
 0.24788105400E+02 0.29723836530E+02 0.35832713740E+02 0.42434925443E+02 0.48452037141E+02
 0.52730929371E+02 0.54282310889E+02 0.52731569510E+02 0.48451572097E+02 0.42435569670E+02
 0.35827552894E+02 0.29726701879E+02 0.24776529954E+02 0.21281163190E+02 0.19268027105E+02
 0.18633545833E+02 0.21601114839E+02 0.24163489093E+02 0.28152418062E+02 0.33268495197E+02
 0.38891430605E+02 0.43876770660E+02 0.46868919426E+02 0.46865355111E+02 0.43897049804E+02
 0.38902664401E+02 0.33273431905E+02 0.28131751773E+02 0.24175677449E+02 0.21610070971E+02
 0.20452115511E+02 0.20950650826E+02 0.22881470702E+02 0.26364130684E+02 0.31130163634E+02
 0.36755336967E+02 0.42434925443E+02 0.47081818052E+02 0.49730535111E+02 0.49730533981E+02
 0.47081820527E+02 0.42434483315E+02 0.36756083427E+02 0.31133660949E+02 0.26362577600E+02
 0.22891802193E+02 0.20941373748E+02 0.20470093620E+02 0.23614687535E+02 0.27333629400E+02
 0.33422380620E+02 0.42049435931E+02 0.52851346005E+02 0.64239757041E+02 0.73287961088E+02
 0.76780684365E+02 0.73274691184E+02 0.64227989037E+02 0.52848074027E+02 0.42058742470E+02
 0.33417120527E+02 0.27323555783E+02 0.23632400238E+02 0.21901020708E+02 0.22066718558E+02
 0.23763140494E+02 0.26932146595E+02 0.31130163634E+02 0.35832713740E+02 0.40187423018E+02
 0.43309252604E+02 0.44406662592E+02 0.43308954536E+02 0.40187628793E+02 0.35832920198E+02
 0.31129357066E+02 0.26929136920E+02 0.23764100639E+02 0.22057704582E+02 0.21909208233E+02
 0.24971321541E+02 0.29879368576E+02 0.38349715161E+02 0.51628431410E+02 0.70621230095E+02
 0.94390506325E+02 0.11820290798E+03 0.13371059032E+03 0.13372345728E+03 0.11821062557E+03
 0.94393731085E+02 0.70616194973E+02 0.51634578948E+02 0.38358377883E+02 0.29863422260E+02
 0.24976081301E+02 0.22678272577E+02 0.22446075837E+02 0.23763140494E+02 0.26364130684E+02
 0.29723836530E+02 0.33245513299E+02 0.36190160310E+02 0.37874146857E+02 0.37876389002E+02
 0.36188259798E+02 0.33247730234E+02 0.29721080721E+02 0.26367698597E+02 0.23763049247E+02
 0.22448311415E+02 0.22683470701E+02 0.25460131235E+02 0.31299520642E+02 0.41949688317E+02
 0.60243725204E+02 0.90029394813E+02 0.13411910409E+03 0.18901184066E+03 0.23877047536E+03
 0.25945678763E+03 0.23876377818E+03 0.18901059588E+03 0.13412190667E+03 0.90023014717E+02
 0.60234510247E+02 0.41963438711E+02 0.31297666485E+02 0.25464045601E+02 0.22678272577E+02
 0.22066718558E+02 0.22881470701E+02 0.24788105400E+02 0.27168494691E+02 0.29521364261E+02
 0.31204555481E+02 0.31841526870E+02 0.31204300117E+02 0.29521228547E+02 0.27168124100E+02
 0.24789363718E+02 0.22879020418E+02 0.22066172931E+02 0.22676193974E+02 0.24978265125E+02
 0.31301857151E+02 0.43280292837E+02 0.65473405903E+02 0.10592876664E+03 0.17595737122E+03
 0.28299755036E+03 0.41106186846E+03 0.50527211064E+03 0.50526692872E+03 0.41106235303E+03
 0.28299588476E+03 0.17596253240E+03 0.10593799282E+03 0.65462767591E+02 0.43281152935E+02
 0.31297666486E+02 0.24976081302E+02 0.21901020708E+02 0.20950650826E+02 0.21272484856E+02
 0.22445693817E+02 0.23928808313E+02 0.25268077125E+02 0.26053019340E+02 0.26051729133E+02
 0.25269660265E+02 0.23927907154E+02 0.22446808590E+02 0.21270472306E+02 0.20953893432E+02
 0.21900926982E+02 0.23632915661E+02 0.29859904737E+02 0.41960256944E+02 0.65463597119E+02
 0.11220575004E+03 0.20419228363E+03 0.37282493001E+03 0.63007876713E+03 0.90058444556E+03
 0.10206102323E+04 0.90059403374E+03 0.63008017539E+03 0.37281944259E+03 0.20418626661E+03
 0.11221292858E+03 0.65462767591E+02 0.41963438712E+02 0.29863422261E+02 0.23632400238E+02
 0.20452115511E+02 0.19282052571E+02 0.19161939526E+02 0.19709574619E+02 0.20454547420E+02
 0.21080219585E+02 0.21308155152E+02 0.21080211540E+02 0.20453982521E+02 0.19709525039E+02
 0.19161944972E+02 0.19283177958E+02 0.20449153318E+02 0.21612119269E+02 0.27324647411E+02
 0.38361115782E+02 0.60237112085E+02 0.10593509015E+03 0.20419465808E+03 0.41126527391E+03
 0.79690322244E+03 0.13154183823E+04 0.16678258646E+04 0.16678232944E+04 0.13154084361E+04
 0.79690775610E+03 0.41127064643E+03 0.20418626661E+03 0.10593799282E+03 0.60234510249E+02
 0.38358377884E+02 0.27323555783E+02 0.21610070971E+02 0.18633405980E+02 0.17252731126E+02
 0.16836553406E+02 0.16898563473E+02 0.17156798531E+02 0.17342398588E+02 0.17343222582E+02
 0.17156200234E+02 0.16899756189E+02 0.16836023448E+02 0.17252705025E+02 0.18632860437E+02
 0.19188686910E+02 0.24172342654E+02 0.33416466933E+02 0.51632061194E+02 0.90023331386E+02
 0.17596273543E+03 0.37281279218E+03 0.79691054418E+03 0.14882823928E+04 0.19051609333E+04
 0.17269146551E+04 0.19051621780E+04 0.14882866617E+04 0.79690775610E+03 0.37281944259E+03
 0.17596253241E+03 0.90023014719E+02 0.51634578949E+02 0.33417120528E+02 0.24175677449E+02
 0.19187609977E+02 0.16558388855E+02 0.15106850550E+02 0.14518089031E+02 0.14275225204E+02
 0.14276747178E+02 0.14255969927E+02 0.14276571106E+02 0.14275189097E+02 0.14517276129E+02
 0.15107574231E+02 0.16558043918E+02 0.16690959281E+02 0.20845286789E+02 0.28134425076E+02
 0.42059864606E+02 0.70615427372E+02 0.13412436166E+03 0.28299416751E+03 0.63008818101E+03
 0.13154153801E+04 0.19051573274E+04 0.74925700950E+03 0.74925797686E+03 0.19051621779E+04
 0.13154084361E+04 0.63008017540E+03 0.28299588476E+03 0.13412190667E+03 0.70616194975E+02
 0.42058742472E+02 0.28131751774E+02 0.20844808149E+02 0.16691357432E+02 0.14383121667E+02
 0.13056999459E+02 0.12353395745E+02 0.12020196680E+02 0.11891502297E+02 0.11891143384E+02
 0.12020659020E+02 0.12353468148E+02 0.13057389095E+02 0.14382821117E+02 0.14374461155E+02
 0.17612302207E+02 0.23224492473E+02 0.33269977259E+02 0.52850307281E+02 0.94391305073E+02
 0.18901049331E+03 0.41106185295E+03 0.90057783373E+03 0.16678254245E+04 0.17269201437E+04
 0.74925700952E+03 0.17269146551E+04 0.16678232944E+04 0.90059403374E+03 0.41106235304E+03
 0.18901059589E+03 0.94393731089E+02 0.52848074029E+02 0.33273431907E+02 0.23224397429E+02
 0.17613350435E+02 0.14373434589E+02 0.12329052588E+02 0.11183789401E+02 0.10477342704E+02
 0.10168403699E+02 0.10038333298E+02 0.10168495479E+02 0.10476853191E+02 0.11183973508E+02
 0.12328400114E+02 0.12167560453E+02 0.14758274470E+02 0.18989249446E+02 0.26037433569E+02
 0.38902324421E+02 0.64229784007E+02 0.11821000255E+03 0.23876621779E+03 0.50527595886E+03
 0.10206148770E+04 0.16678254245E+04 0.19051573274E+04 0.19051609333E+04 0.16678258646E+04
 0.10206102323E+04 0.50526692873E+03 0.23876377818E+03 0.11821062558E+03 0.64227989040E+02
 0.38902664402E+02 0.26036141963E+02 0.18989120583E+02 0.14757612017E+02 0.12167933323E+02
 0.10539018541E+02 0.95241620787E+01 0.89527737950E+01 0.86889529486E+01 0.86890405846E+01
 0.89528644673E+01 0.95242932543E+01 0.10539301763E+02 0.10272430246E+02 0.12343122763E+02
 0.15411928135E+02 0.20444589856E+02 0.28778062131E+02 0.43892621402E+02 0.73276418394E+02
 0.13372148499E+03 0.25944588265E+03 0.50527595885E+03 0.90057783373E+03 0.13154153801E+04
 0.14882823929E+04 0.13154183823E+04 0.90058444557E+03 0.50527211064E+03 0.25945678763E+03
 0.13372345729E+03 0.73274691187E+02 0.43897049806E+02 0.28775173669E+02 0.20446435470E+02
 0.15411558776E+02 0.12344504314E+02 0.10271565719E+02 0.89877809132E+01 0.81546385063E+01
 0.77343619840E+01 0.75761122776E+01 0.77340873612E+01 0.81549118810E+01 0.89870844323E+01
 0.87111405681E+01 0.10258699182E+02 0.12637084344E+02 0.16145226600E+02 0.21666710722E+02
 0.30808286674E+02 0.46865602966E+02 0.76781975915E+02 0.13372148499E+03 0.23876621779E+03
 0.41106185295E+03 0.63008818100E+03 0.79691054417E+03 0.79690322244E+03 0.63007876713E+03
 0.41106186846E+03 0.23877047536E+03 0.13371059033E+03 0.76780684368E+02 0.46865355113E+02
 0.30805423937E+02 0.21669945828E+02 0.16143081691E+02 0.12637201205E+02 0.10257434063E+02
 0.87119706560E+01 0.76803518599E+01 0.70736173822E+01 0.67820561682E+01 0.67825470371E+01
 0.70732221386E+01 0.76810118247E+01 0.74075310528E+01 0.86124402377E+01 0.10344615036E+02
 0.12920183413E+02 0.16676347977E+02 0.22381133312E+02 0.31554382319E+02 0.46865602966E+02
 0.73276418393E+02 0.11821000255E+03 0.18901049330E+03 0.28299416750E+03 0.37281279217E+03
 0.41126527391E+03 0.37282493001E+03 0.28299755036E+03 0.18901184066E+03 0.11820290798E+03
 0.73287961091E+02 0.46868919428E+02 0.31552519050E+02 0.22384334537E+02 0.16672739246E+02
 0.12923280681E+02 0.10343997217E+02 0.86140206227E+01 0.74064396488E+01 0.66579241642E+01
 0.62148900706E+01 0.60913896130E+01 0.62151301298E+01 0.66572236003E+01 0.63954629957E+01
 0.72773376370E+01 0.85899182612E+01 0.10447984134E+02 0.13085169834E+02 0.16871969535E+02
 0.22381133312E+02 0.30808286673E+02 0.43892621401E+02 0.64229784006E+02 0.94391305070E+02
 0.13412436166E+03 0.17596273543E+03 0.20419465808E+03 0.20419228362E+03 0.17595737122E+03
 0.13411910409E+03 0.94390506326E+02 0.64239757043E+02 0.43876770662E+02 0.30807565410E+02
 0.22383515476E+02 0.16867852497E+02 0.13089096782E+02 0.10444045943E+02 0.85912858101E+01
 0.72750008854E+01 0.63975158026E+01 0.58452435140E+01 0.55870383802E+01 0.55853650730E+01
 0.58470821995E+01 0.56119213767E+01 0.62549450684E+01 0.72175140191E+01 0.85933793458E+01
 0.10487344467E+02 0.13085169834E+02 0.16676347977E+02 0.21666710721E+02 0.28778062131E+02
 0.38902324420E+02 0.52850307279E+02 0.70615427369E+02 0.90023331382E+02 0.10593509014E+03
 0.11220575004E+03 0.10592876664E+03 0.90029394811E+02 0.70621230095E+02 0.52851346006E+02
 0.38891430606E+02 0.28795756478E+02 0.21663989392E+02 0.16675971234E+02 0.13088963972E+02
 0.10483961475E+02 0.85970846008E+01 0.72166291913E+01 0.62565488168E+01 0.56108257990E+01
 0.52506491905E+01 0.51282864461E+01 0.52501379835E+01 0.50399313871E+01 0.54877449887E+01
 0.61921531391E+01 0.72058670073E+01 0.85933793458E+01 0.10447984133E+02 0.12920183412E+02
 0.16145226600E+02 0.20444589856E+02 0.26037433569E+02 0.33269977257E+02 0.42059864604E+02
 0.51632061192E+02 0.60237112082E+02 0.65463597116E+02 0.65473405900E+02 0.60243725203E+02
 0.51628431409E+02 0.42049435930E+02 0.33268495197E+02 0.26051874188E+02 0.20425375475E+02
 0.16149430844E+02 0.12919418379E+02 0.10443508002E+02 0.85979036588E+01 0.72001790070E+01
 0.61952690018E+01 0.54835445367E+01 0.50440877355E+01 0.48245004047E+01 0.48284510825E+01
 0.46525256880E+01 0.49448321939E+01 0.54440112966E+01 0.61921531391E+01 0.72175140191E+01
 0.85899182612E+01 0.10344615035E+02 0.12637084344E+02 0.15411928135E+02 0.18989249445E+02
 0.23224492472E+02 0.28134425075E+02 0.33416466931E+02 0.38361115780E+02 0.41960256942E+02
 0.43280292835E+02 0.41949688316E+02 0.38349715160E+02 0.33422380619E+02 0.28152418062E+02
 0.23221580412E+02 0.18968986325E+02 0.15439313597E+02 0.12625104043E+02 0.10352805133E+02
 0.85886927131E+01 0.72181354144E+01 0.61936390671E+01 0.54449770523E+01 0.49450685576E+01
 0.46522169777E+01 0.45600434849E+01 0.44288174961E+01 0.45974736372E+01 0.49448321939E+01
 0.54877449887E+01 0.62549450684E+01 0.72773376370E+01 0.86124402376E+01 0.10258699182E+02
 0.12343122762E+02 0.14758274470E+02 0.17612302207E+02 0.20845286788E+02 0.24172342653E+02
 0.27324647410E+02 0.29859904736E+02 0.31301857150E+02 0.31299520641E+02 0.29879368576E+02
 0.27333629399E+02 0.24163489092E+02 0.20816140981E+02 0.17635457139E+02 0.14766306375E+02
 0.12319979323E+02 0.10270209292E+02 0.86027633750E+01 0.72795927199E+01 0.62531350581E+01
 0.54867074035E+01 0.49434928220E+01 0.45974202381E+01 0.44292277545E+01 0.42775474957E+01
 0.43473802964E+01 0.45606552876E+01 0.49299172385E+01 0.54729239454E+01 0.62157212860E+01
 0.71688440425E+01 0.83926743558E+01 0.98518450831E+01 0.11608746177E+02 0.13654250607E+02
 0.15792455938E+02 0.18073364401E+02 0.20299733782E+02 0.22151092853E+02 0.23381050194E+02
 0.23821476387E+02 0.23374228888E+02 0.22134435109E+02 0.20290247030E+02 0.18100812339E+02
 0.15806859313E+02 0.13624384474E+02 0.11614611620E+02 0.98635762377E+01 0.83865511615E+01
 0.71771450131E+01 0.62144926608E+01 0.54751998375E+01 0.49313494386E+01 0.45620609244E+01
 0.43469937758E+01 0.43469937757E+01 0.43472015034E+01 0.44701257185E+01 0.47214974434E+01
 0.51150438887E+01 0.56680488533E+01 0.64157725942E+01 0.73521453866E+01 0.85372568891E+01
 0.99375649068E+01 0.11532578534E+02 0.13351435112E+02 0.15268342844E+02 0.17083452979E+02
 0.18658678868E+02 0.19906274911E+02 0.20574496597E+02 0.20581841728E+02 0.19914366571E+02
 0.18677765210E+02 0.17081280544E+02 0.15239825087E+02 0.13351022876E+02 0.11554304062E+02
 0.99320399465E+01 0.85283318658E+01 0.73554376980E+01 0.64085823382E+01 0.56680222181E+01
 0.51131202343E+01 0.47192302086E+01 0.44692981503E+01 0.45620609243E+01 0.45106673136E+01
 0.45605625863E+01 0.47172276258E+01 0.49927649104E+01 0.54060865036E+01 0.59696462381E+01
 0.67324921464E+01 0.76833222932E+01 0.88703458065E+01 0.10294798673E+02 0.11878284352E+02
 0.13585605886E+02 0.15353552294E+02 0.17009178224E+02 0.18362017221E+02 0.19258631113E+02
 0.19564102259E+02 0.19250176054E+02 0.18349668189E+02 0.16997429960E+02 0.15362084820E+02
 0.13606145529E+02 0.11875812579E+02 0.10278011076E+02 0.88739715153E+01 0.76916122450E+01
 0.67304637038E+01 0.59770136189E+01 0.54063904382E+01 0.49954376434E+01 0.47192302086E+01
 0.49313494386E+01 0.48452453019E+01 0.48468047803E+01 0.49343062226E+01 0.51155552729E+01
 0.54079652924E+01 0.58449302148E+01 0.64354494131E+01 0.72402604556E+01 0.82576923115E+01
 0.95071753843E+01 0.11023266846E+02 0.12744111861E+02 0.14550514159E+02 0.16335469452E+02
 0.17932864054E+02 0.19135681397E+02 0.19794150820E+02 0.19794961838E+02 0.19148865189E+02
 0.17941655001E+02 0.16340587117E+02 0.14543717045E+02 0.12728157383E+02 0.11025478265E+02
 0.95217030056E+01 0.82553783335E+01 0.72327358725E+01 0.64356820679E+01 0.58379780246E+01
 0.54063904382E+01 0.51131202343E+01 0.54751998375E+01 0.53706038508E+01 0.53357212064E+01
 0.53670536852E+01 0.54717943917E+01 0.56661197072E+01 0.59692680849E+01 0.64350331145E+01
 0.70787052113E+01 0.79702866664E+01 0.91391485783E+01 0.10573520113E+02 0.12284483009E+02
 0.14242091554E+02 0.16301491537E+02 0.18268377834E+02 0.19927468915E+02 0.21032366880E+02
 0.21424261774E+02 0.21026888381E+02 0.19915824017E+02 0.18263992272E+02 0.16298072660E+02
 0.14246555431E+02 0.12298241015E+02 0.10571997589E+02 0.91260457381E+01 0.79707424874E+01
 0.70865942579E+01 0.64356820679E+01 0.59770136189E+01 0.56680222180E+01 0.62144926608E+01
 0.61088840924E+01 0.60654678610E+01 0.60677812758E+01 0.61130961073E+01 0.62179830666E+01
 0.64163883244E+01 0.67331077898E+01 0.72403443989E+01 0.79702892891E+01 0.89903827851E+01
 0.10378198708E+02 0.12131636277E+02 0.14205095909E+02 0.16533025531E+02 0.18932228498E+02
 0.21135976746E+02 0.22855168063E+02 0.23794832804E+02 0.23799623720E+02 0.22860022625E+02
 0.21144939868E+02 0.18934984299E+02 0.16535791415E+02 0.14202699859E+02 0.12118999799E+02
 0.10378471008E+02 0.90036177731E+01 0.79707424874E+01 0.72327358725E+01 0.67304637038E+01
 0.64085823382E+01 0.71771450130E+01 0.70960055172E+01 0.70634451270E+01 0.70538582473E+01
 0.70606148982E+01 0.70908621146E+01 0.71676699412E+01 0.73515528484E+01 0.76828379289E+01
 0.82578262720E+01 0.91389722128E+01 0.10378535751E+02 0.12059517854E+02 0.14228496785E+02
 0.16796757561E+02 0.19616932134E+02 0.22436322642E+02 0.24864700210E+02 0.26530122265E+02
 0.27118146447E+02 0.26525188320E+02 0.24861612280E+02 0.22428399842E+02 0.19615085763E+02
 0.16794418806E+02 0.14228690711E+02 0.12072521725E+02 0.10378471008E+02 0.91260457381E+01
 0.82553783335E+01 0.76916122450E+01 0.73554376979E+01 0.83865511615E+01 0.83633333855E+01
 0.83932979061E+01 0.84233351749E+01 0.84232300647E+01 0.83972143439E+01 0.83752620688E+01
 0.83936334270E+01 0.85378100969E+01 0.88705398885E+01 0.95072379120E+01 0.10573298447E+02
 0.12131729869E+02 0.14227835502E+02 0.16898326220E+02 0.20031985536E+02 0.23378846923E+02
 0.26557377993E+02 0.29065039552E+02 0.30462731370E+02 0.30463081081E+02 0.29069308834E+02
 0.26559410438E+02 0.23386500432E+02 0.20032747757E+02 0.16901101862E+02 0.14228690711E+02
 0.12118999799E+02 0.10571997589E+02 0.95217030056E+01 0.88739715153E+01 0.85283318658E+01
 0.98635762377E+01 0.99569743157E+01 0.10102754577E+02 0.10224716959E+02 0.10273415309E+02
 0.10224507453E+02 0.10092077414E+02 0.99444664054E+01 0.98507065170E+01 0.99375651404E+01
 0.10294107474E+02 0.11023980590E+02 0.12283918313E+02 0.14205960083E+02 0.16796464092E+02
 0.20033547132E+02 0.23747077936E+02 0.27534734417E+02 0.30887129077E+02 0.33208644091E+02
 0.34043880886E+02 0.33208432710E+02 0.30883440292E+02 0.27532931689E+02 0.23740207791E+02
 0.20032747757E+02 0.16794418806E+02 0.14202699859E+02 0.12298241015E+02 0.11025478265E+02
 0.10278011076E+02 0.99320399465E+01 0.11614611620E+02 0.11907691558E+02 0.12296155493E+02
 0.12638495732E+02 0.12829729414E+02 0.12829837470E+02 0.12643764116E+02 0.12309733256E+02
 0.11929448214E+02 0.11609192974E+02 0.11533188108E+02 0.11878155438E+02 0.12744074809E+02
 0.14241858631E+02 0.16533047048E+02 0.19615653770E+02 0.23378889393E+02 0.27532472407E+02
 0.31538195612E+02 0.34765720301E+02 0.36573470612E+02 0.36573976864E+02 0.34765114508E+02
 0.31542532715E+02 0.27532931689E+02 0.23386500432E+02 0.19615085763E+02 0.16535791416E+02
 0.14246555432E+02 0.12728157383E+02 0.11875812580E+02 0.11554304062E+02 0.13624384474E+02
 0.14234879651E+02 0.15006191945E+02 0.15764925271E+02 0.16314306259E+02 0.16512797196E+02
 0.16310514049E+02 0.15757323065E+02 0.14978725221E+02 0.14229835238E+02 0.13653364424E+02
 0.13351428747E+02 0.13585242980E+02 0.14551400579E+02 0.16300509742E+02 0.18934212827E+02
 0.22435587282E+02 0.26559947635E+02 0.30887093586E+02 0.34765155855E+02 0.37488577535E+02
 0.38470175294E+02 0.37488791733E+02 0.34765114508E+02 0.30883440292E+02 0.26559410439E+02
 0.22428399842E+02 0.18934984299E+02 0.16298072660E+02 0.14543717045E+02 0.13606145529E+02
 0.13351022876E+02 0.15806859314E+02 0.16947245178E+02 0.18396090756E+02 0.19899824111E+02
 0.21148977082E+02 0.21865986861E+02 0.21867504298E+02 0.21155096213E+02 0.19921146699E+02
 0.18415076540E+02 0.16921707370E+02 0.15792625840E+02 0.15269186698E+02 0.15352452136E+02
 0.16336470859E+02 0.18266874515E+02 0.21136251433E+02 0.24862749843E+02 0.29064477068E+02
 0.33209628604E+02 0.36572876949E+02 0.38471648290E+02 0.38470175294E+02 0.36573976864E+02
 0.33208432711E+02 0.29069308835E+02 0.24861612280E+02 0.21144939869E+02 0.18263992272E+02
 0.16340587117E+02 0.15362084820E+02 0.15239825087E+02 0.18100812339E+02 0.19953810870E+02
 0.22463126159E+02 0.25303358386E+02 0.28001532577E+02 0.29964929467E+02 0.30687404749E+02
 0.29962422830E+02 0.27981989584E+02 0.25287005855E+02 0.22468470598E+02 0.19982661772E+02
 0.18071781004E+02 0.17084635115E+02 0.17008052757E+02 0.17934416575E+02 0.19926743420E+02
 0.22857554461E+02 0.26530314576E+02 0.30462053476E+02 0.34044449179E+02 0.36572876949E+02
 0.37488577535E+02 0.36573470612E+02 0.34043880886E+02 0.30463081082E+02 0.26525188320E+02
 0.22860022626E+02 0.19915824017E+02 0.17941655001E+02 0.16997429961E+02 0.17081280544E+02
 0.20290247030E+02 0.23108594385E+02 0.27165226747E+02 0.32195780596E+02 0.37639433717E+02
 0.42413878564E+02 0.45265668121E+02 0.45261476552E+02 0.42433670115E+02 0.37649609063E+02
 0.32201347150E+02 0.27142257613E+02 0.23122830582E+02 0.20297875619E+02 0.18660863000E+02
 0.18359590500E+02 0.19137367673E+02 0.21029486522E+02 0.23794708540E+02 0.27119035305E+02
 0.30462053476E+02 0.33209628604E+02 0.34765155855E+02 0.34765720301E+02 0.33208644091E+02
 0.30462731371E+02 0.27118146447E+02 0.23799623721E+02 0.21026888381E+02 0.19148865189E+02
 0.18349668189E+02 0.18677765210E+02 0.22134435110E+02 0.26091198083E+02 0.32168879746E+02
 0.40537426703E+02 0.50840367563E+02 0.61581905705E+02 0.70064318628E+02 0.73326550372E+02
 0.70052237677E+02 0.61571184595E+02 0.50837266978E+02 0.40546420466E+02 0.32164624614E+02
 0.26080783955E+02 0.22151748856E+02 0.19905429604E+02 0.19260104963E+02 0.19793454340E+02
 0.21428236747E+02 0.23794708540E+02 0.26530314576E+02 0.29064477068E+02 0.30887093586E+02
 0.31538195612E+02 0.30887129077E+02 0.29065039552E+02 0.26530122265E+02 0.23794832804E+02
 0.21424261775E+02 0.19794961839E+02 0.19250176055E+02 0.19914366571E+02 0.23374228888E+02
 0.28481800999E+02 0.36838798189E+02 0.49578659627E+02 0.67491490852E+02 0.89647138694E+02
 0.11164742951E+03 0.12588946543E+03 0.12590182860E+03 0.11165350767E+03 0.89649644083E+02
 0.67487271051E+02 0.49584664519E+02 0.36846174213E+02 0.28467223268E+02 0.23379083851E+02
 0.20576233362E+02 0.19562052560E+02 0.19793454340E+02 0.21029486522E+02 0.22857554461E+02
 0.24862749843E+02 0.26559947635E+02 0.27532472407E+02 0.27534734417E+02 0.26557377993E+02
 0.24864700210E+02 0.22855168064E+02 0.21032366880E+02 0.19794150820E+02 0.19564102260E+02
 0.20581841728E+02 0.23821476387E+02 0.29814915049E+02 0.40239611106E+02 0.57665770425E+02
 0.85545409262E+02 0.12622107511E+03 0.17622585828E+03 0.22111766947E+03 0.23968389075E+03
 0.22111172208E+03 0.17622649513E+03 0.12622300171E+03 0.85538701833E+02 0.57657509534E+02
 0.40253032052E+02 0.29812497096E+02 0.23826018986E+02 0.20576233362E+02 0.19260104963E+02
 0.19137367673E+02 0.19926743420E+02 0.21136251433E+02 0.22435587281E+02 0.23378889393E+02
 0.23747077936E+02 0.23378846923E+02 0.22436322642E+02 0.21135976746E+02 0.19927468915E+02
 0.19135681397E+02 0.19258631114E+02 0.20574496597E+02 0.23381050195E+02 0.29816931961E+02
 0.41495246528E+02 0.62561132331E+02 0.10024717675E+03 0.16435787759E+03 0.26072963136E+03
 0.37441067711E+03 0.45727952665E+03 0.45727430723E+03 0.37440977533E+03 0.26072777209E+03
 0.16436383272E+03 0.10025562297E+03 0.62551021652E+02 0.41495814682E+02 0.29812497096E+02
 0.23379083851E+02 0.19905429604E+02 0.18359590500E+02 0.17934416575E+02 0.18266874515E+02
 0.18934212827E+02 0.19615653770E+02 0.20033547132E+02 0.20031985536E+02 0.19616932134E+02
 0.18932228498E+02 0.18268377834E+02 0.17932864054E+02 0.18362017222E+02 0.19906274912E+02
 0.22151092854E+02 0.28464389464E+02 0.40248759889E+02 0.62551796608E+02 0.10603210775E+03
 0.18992361952E+03 0.34060073402E+03 0.56638246067E+03 0.80167748424E+03 0.90620446051E+03
 0.80168795599E+03 0.56638371961E+03 0.34059515415E+03 0.18991792627E+03 0.10603880644E+03
 0.62551021653E+02 0.40253032052E+02 0.28467223268E+02 0.22151748856E+02 0.18660863000E+02
 0.17008052757E+02 0.16336470859E+02 0.16300509742E+02 0.16533047048E+02 0.16796464092E+02