    4    4    1    1
  0.1151780E+02  0.3196922E-09  0.3196922E-09  0.5205169E-09  0.5000000E-15
  1.000000000000000E-004
  CAR 
 unknown system                          
     36    488     64
 
  0.0000000E+00  0.0000000E+00  0.0000000E+00  0.1240079E-03
      1        -10.686531   1.000000
      2         -9.790358   1.000000
      3         -8.199380   1.000000
      4         -8.184329   1.000000
      5         -8.184327   1.000000
      6         -8.124488   1.000000
      7         -8.124483   1.000000
      8         -7.937602   1.000000
      9         -7.937602   1.000000
     10         -7.842053   1.000000
     11         -7.842051   1.000000
     12         -6.613490   1.000000
     13         -1.767737   1.000000
     14          4.207189   1.000000
     15          4.207703   1.000000
     16          5.202090   1.000000
     17          5.234165   1.000000
     18          5.234750   1.000000
     19          7.078912   0.000000
     20          9.421398   0.000000
     21         14.392919   0.000000
     22         15.072605   0.000000
     23         15.072622   0.000000
     24         15.899451   0.000000
     25         16.873047   0.000000
     26         16.873200   0.000000
     27         19.789487   0.000000
     28         20.893109   0.000000
     29         20.893156   0.000000
     30         23.117204   0.000000
     31         23.117286   0.000000
     32         23.336620   0.000000
     33         23.346087   0.000000
     34         26.800012   0.000000
     35         29.571448   0.000000
     36         29.571952   0.000000
     37         31.799780   0.000000
     38         33.543834   0.000000
     39         33.544438   0.000000
     40         33.928092   0.000000
     41         33.928097   0.000000
     42         34.303857   0.000000
     43         37.891851   0.000000
     44         37.891921   0.000000
     45         39.557202   0.000000
     46         41.580286   0.000000
     47         41.580940   0.000000
     48         43.270380   0.000000
     49         44.469906   0.000000
     50         44.470728   0.000000
     51         47.385469   0.000000
     52         47.899452   0.000000
     53         50.234877   0.000000
     54         52.919967   0.000000
     55         53.057306   0.000000
     56         53.057469   0.000000
     57         55.134559   0.000000
     58         55.162501   0.000000
     59         55.162744   0.000000
     60         55.764795   0.000000
     61         55.764878   0.000000
     62         56.365600   0.000000
     63         60.288851   0.000000
     64         60.379622   0.000000
 
  0.4166667E-01  0.3074796E-17  0.0000000E+00  0.7440476E-03
      1        -10.669427   1.000000
      2         -9.785841   1.000000
      3         -8.198444   1.000000
      4         -8.181709   1.000000
      5         -8.178114   1.000000
      6         -8.122759   1.000000
      7         -8.121101   1.000000
      8         -7.939044   1.000000
      9         -7.937847   1.000000
     10         -7.845125   1.000000
     11         -7.841700   1.000000
     12         -6.601359   1.000000
     13         -1.743147   1.000000
     14          4.071802   1.000000
     15          4.169347   1.000000
     16          5.039693   1.000000
     17          5.187085   1.000000
     18          5.219190   1.000000
     19          7.260471   0.000000
     20          9.541718   0.000000
     21         14.356171   0.000000
     22         14.919865   0.000000
     23         15.119993   0.000000
     24         15.932648   0.000000
     25         16.768918   0.000000
     26         16.913459   0.000000
     27         19.610769   0.000000
     28         20.760652   0.000000
     29         21.067389   0.000000
     30         22.974851   0.000000
     31         23.356464   0.000000
     32         23.514723   0.000000
     33         23.694661   0.000000
     34         26.995675   0.000000
     35         29.342184   0.000000
     36         29.559976   0.000000
     37         32.024786   0.000000
     38         33.426042   0.000000
     39         33.564952   0.000000
     40         33.781193   0.000000
     41         33.796378   0.000000
     42         34.277019   0.000000
     43         38.098249   0.000000
     44         38.197548   0.000000
     45         39.415865   0.000000
     46         41.535507   0.000000
     47         41.734590   0.000000
     48         43.325265   0.000000
     49         44.356257   0.000000
     50         44.422286   0.000000
     51         47.410395   0.000000
     52         47.942054   0.000000
     53         49.424455   0.000000
     54         52.249660   0.000000
     55         52.987692   0.000000
     56         53.818562   0.000000
     57         54.533894   0.000000
     58         55.258074   0.000000
     59         55.354059   0.000000
     60         55.951770   0.000000
     61         56.185180   0.000000
     62         56.440905   0.000000
     63         59.058901   0.000000
     64         59.139799   0.000000
 
  0.8333333E-01  0.2628149E-17  0.0000000E+00  0.7440476E-03
      1        -10.619167   1.000000
      2         -9.772987   1.000000
      3         -8.193289   1.000000
      4         -8.174377   1.000000
      5         -8.161444   1.000000
      6         -8.117065   1.000000
      7         -8.111130   1.000000
      8         -7.943101   1.000000
      9         -7.938275   1.000000
     10         -7.853523   1.000000
     11         -7.840533   1.000000
     12         -6.565787   1.000000
     13         -1.669545   1.000000
     14          3.695047   1.000000
     15          4.062590   1.000000
     16          4.599874   1.000000
     17          5.137221   1.000000
     18          5.174321   1.000000
     19          7.665986   0.000000
     20          9.860525   0.000000
     21         14.208212   0.000000
     22         14.586391   0.000000
     23         15.253362   0.000000
     24         15.994110   0.000000
     25         16.526502   0.000000
     26         17.026864   0.000000
     27         19.141523   0.000000
     28         20.498543   0.000000
     29         21.528278   0.000000
     30         22.914276   0.000000
     31         23.947592   0.000000
     32         24.012546   0.000000
     33         24.317866   0.000000
     34         27.456004   0.000000
     35         28.943250   0.000000
     36         29.533826   0.000000
     37         32.430402   0.000000
     38         33.155580   0.000000
     39         33.311425   0.000000
     40         33.413710   0.000000
     41         33.675769   0.000000
     42         34.428785   0.000000
     43         38.649246   0.000000
     44         38.795496   0.000000
     45         39.119103   0.000000
     46         41.381600   0.000000
     47         42.151248   0.000000
     48         43.484658   0.000000
     49         44.079184   0.000000
     50         44.264272   0.000000
     51         47.496800   0.000000
     52         48.056282   0.000000
     53         48.059700   0.000000
     54         51.061861   0.000000
     55         52.658802   0.000000
     56         53.986031   0.000000
     57         54.438753   0.000000
     58         55.050681   0.000000
     59         55.342246   0.000000
     60         55.492767   0.000000
     61         56.579605   0.000000
     62         57.261103   0.000000
     63         58.334886   0.000000
     64         58.654724   0.000000
 
  0.1250000E+00  0.1536939E-17  0.0000000E+00  0.7440476E-03
      1        -10.539559   1.000000
      2         -9.753805   1.000000
      3         -8.183017   1.000000
      4         -8.163487   1.000000
      5         -8.135331   1.000000
      6         -8.105152   1.000000
      7         -8.095389   1.000000
      8         -7.950014   1.000000
      9         -7.938263   1.000000
     10         -7.865478   1.000000
     11         -7.838814   1.000000
     12         -6.508587   1.000000
     13         -1.549729   1.000000
     14          3.154092   1.000000
     15          3.900787   1.000000
     16          4.066093   1.000000
     17          5.045126   1.000000
     18          5.096555   1.000000
     19          8.137145   0.000000
     20         10.282601   0.000000
     21         13.829653   0.000000
     22         14.330210   0.000000
     23         15.446665   0.000000
     24         15.882441   0.000000
     25         16.428800   0.000000
     26         17.192627   0.000000
     27         18.587693   0.000000
     28         20.290490   0.000000
     29         21.837438   0.000000
     30         23.281330   0.000000
     31         24.719588   0.000000
     32         24.732389   0.000000
     33         25.016002   0.000000
     34         27.604125   0.000000
     35         29.113350   0.000000
     36         29.506613   0.000000
     37         32.270566   0.000000
     38         32.855164   0.000000
     39         32.982460   0.000000
     40         33.257310   0.000000
     41         33.751631   0.000000
     42         34.721296   0.000000
     43         38.266950   0.000000
     44         39.427036   0.000000
     45         39.840288   0.000000
     46         41.061048   0.000000
     47         42.612229   0.000000
     48         43.660048   0.000000
     49         43.954472   0.000000
     50         44.005413   0.000000
     51         46.797576   0.000000
     52         47.668629   0.000000
     53         48.231782   0.000000
     54         49.931649   0.000000
     55         51.954287   0.000000
     56         53.075142   0.000000
     57         53.773979   0.000000
     58         53.914346   0.000000
     59         54.925736   0.000000
     60         55.709043   0.000000
     61         57.635684   0.000000
     62         57.933731   0.000000
     63         58.246049   0.000000
     64         59.117912   0.000000
 
  0.1666667E+00  0.1293040E-16  0.0000000E+00  0.7440476E-03
      1        -10.436111   1.000000
      2         -9.730677   1.000000
      3         -8.169728   1.000000
      4         -8.150469   1.000000
      5         -8.105531   1.000000
      6         -8.075298   1.000000
      7         -8.074617   1.000000
      8         -7.958601   1.000000
      9         -7.936348   1.000000
     10         -7.877676   1.000000
     11         -7.836666   1.000000
     12         -6.432465   1.000000
     13         -1.386966   1.000000
     14          2.532791   1.000000
     15          3.501439   1.000000
     16          3.701537   1.000000
     17          4.918527   1.000000
     18          4.996875   1.000000
     19          8.612690   0.000000
     20         10.701894   0.000000
     21         13.356526   0.000000
     22         14.125391   0.000000
     23         15.596758   0.000000
     24         15.655474   0.000000
     25         16.548915   0.000000
     26         17.387698   0.000000
     27         18.128410   0.000000
     28         20.246302   0.000000
     29         21.779527   0.000000
     30         24.110154   0.000000
     31         25.447884   0.000000
     32         25.637429   0.000000
     33         25.706469   0.000000
     34         27.407227   0.000000
     35         29.498224   0.000000
     36         30.000385   0.000000
     37         31.752064   0.000000
     38         32.462225   0.000000
     39         32.527990   0.000000
     40         33.670238   0.000000
     41         33.802354   0.000000
     42         35.134414   0.000000
     43         37.441946   0.000000
     44         40.340132   0.000000
     45         40.528345   0.000000
     46         40.653391   0.000000
     47         42.634270   0.000000
     48         43.444245   0.000000
     49         44.021439   0.000000
     50         44.507733   0.000000
     51         45.848989   0.000000
     52         47.991947   0.000000
     53         48.435236   0.000000
     54         49.024544   0.000000
     55         51.033927   0.000000
     56         51.272898   0.000000
     57         52.245686   0.000000
     58         53.803300   0.000000
     59         54.776299   0.000000
     60         55.937274   0.000000
     61         57.192625   0.000000
     62         58.249832   0.000000
     63         58.867678   0.000000
     64         59.041473   0.000000
 
  0.2083333E+00 -0.8319580E-17  0.0000000E+00  0.7440476E-03
      1        -10.317835   1.000000
      2         -9.706541   1.000000
      3         -8.156483   1.000000
      4         -8.137547   1.000000
      5         -8.083446   1.000000
      6         -8.050697   1.000000
      7         -8.013884   1.000000
      8         -7.967468   1.000000
      9         -7.931341   1.000000
     10         -7.883388   1.000000
     11         -7.834241   1.000000
     12         -6.341818   1.000000
     13         -1.189278   1.000000
     14          1.887104   1.000000
     15          2.927094   1.000000
     16          3.485507   1.000000
     17          4.749357   1.000000
     18          4.874261   1.000000
     19          9.060043   0.000000
     20         11.005505   0.000000
     21         12.932767   0.000000
     22         13.907486   0.000000
     23         15.390093   0.000000
     24         15.821147   0.000000
     25         16.633865   0.000000
     26         17.606519   0.000000
     27         17.904309   0.000000
     28         20.421187   0.000000
     29         21.621123   0.000000
     30         24.676236   0.000000
     31         26.187892   0.000000
     32         26.299531   0.000000
     33         26.627630   0.000000
     34         27.659894   0.000000
     35         29.533934   0.000000
     36         30.755705   0.000000
     37         31.641619   0.000000
     38         32.100777   0.000000
     39         32.172787   0.000000
     40         33.738641   0.000000
     41         34.018299   0.000000
     42         35.678291   0.000000
     43         36.538265   0.000000
     44         39.731671   0.000000
     45         41.299975   0.000000
     46         41.394580   0.000000
     47         42.453245   0.000000
     48         42.753827   0.000000
     49         44.618135   0.000000
     50         45.240788   0.000000
     51         45.303526   0.000000
     52         48.290302   0.000000
     53         48.389144   0.000000
     54         48.676610   0.000000
     55         49.617919   0.000000
     56         49.947839   0.000000
     57         50.907436   0.000000
     58         53.834106   0.000000
     59         54.576544   0.000000
     60         55.855088   0.000000
     61         56.240717   0.000000
     62         57.499399   0.000000
     63         58.353315   0.000000
     64         58.927405   0.000000
 
  0.2500000E+00  0.3073879E-17  0.0000000E+00  0.7440476E-03
      1        -10.195020   1.000000
      2         -9.683863   1.000000
      3         -8.145200   1.000000
      4         -8.126587   1.000000
      5         -8.063049   1.000000
      6         -8.025154   1.000000
      7         -7.975840   1.000000
      8         -7.952990   1.000000
      9         -7.922159   1.000000
     10         -7.846829   1.000000
     11         -7.831529   1.000000
     12         -6.243616   1.000000
     13         -0.971568   1.000000
     14          1.269172   1.000000
     15          2.362362   1.000000
     16          3.268009   1.000000
     17          4.536274   1.000000
     18          4.743892   1.000000
     19          9.462922   0.000000
     20         11.109747   0.000000
     21         12.582335   0.000000
     22         13.727766   0.000000
     23         15.334973   0.000000
     24         15.898334   0.000000
     25         16.619235   0.000000
     26         17.866043   0.000000
     27         17.955734   0.000000
     28         20.816251   0.000000
     29         21.482569   0.000000
     30         24.505184   0.000000
     31         26.702268   0.000000
     32         27.284162   0.000000
     33         27.675736   0.000000
     34         28.313802   0.000000
     35         29.634289   0.000000
     36         30.816061   0.000000
     37         31.730054   0.000000
     38         31.826131   0.000000
     39         32.687320   0.000000
     40         33.490371   0.000000
     41         34.212924   0.000000
     42         35.709721   0.000000
     43         36.429503   0.000000
     44         38.820432   0.000000
     45         41.716786   0.000000
     46         41.998380   0.000000
     47         42.420276   0.000000
     48         42.509634   0.000000
     49         44.795054   0.000000
     50         45.275171   0.000000
     51         46.077904   0.000000
     52         47.285095   0.000000
     53         47.714312   0.000000
     54         48.705161   0.000000
     55         49.346042   0.000000
     56         49.406991   0.000000
     57         50.185965   0.000000
     58         53.683434   0.000000
     59         54.350074   0.000000
     60         54.355360   0.000000
     61         56.171242   0.000000
     62         56.322439   0.000000
     63         57.712447   0.000000
     64         58.452293   0.000000
 
  0.2916667E+00  0.4222291E-16  0.0000000E+00  0.7440476E-03
      1        -10.078768   1.000000
      2         -9.664711   1.000000
      3         -8.137161   1.000000
      4         -8.118910   1.000000
      5         -8.045775   1.000000
      6         -8.000053   1.000000
      7         -7.977993   1.000000
      8         -7.942764   1.000000
      9         -7.908946   1.000000
     10         -7.828609   1.000000
     11         -7.716606   1.000000
     12         -6.148908   1.000000
     13         -0.771752   1.000000
     14          0.736710   1.000000
     15          1.823779   1.000000
     16          3.060995   1.000000
     17          4.277877   1.000000
     18          4.613428   1.000000
     19          9.800448   0.000000
     20         11.042531   0.000000
     21         12.256385   0.000000
     22         13.635150   0.000000
     23         15.394837   0.000000
     24         15.885367   0.000000
     25         16.634773   0.000000
     26         18.136292   0.000000
     27         18.166429   0.000000
     28         21.392756   0.000000
     29         21.414268   0.000000
     30         24.057153   0.000000
     31         26.922841   0.000000
     32         28.256677   0.000000
     33         28.733034   0.000000
     34         28.963224   0.000000
     35         29.817620   0.000000
     36         31.101208   0.000000
     37         31.449645   0.000000
     38         31.887132   0.000000
     39         33.009057   0.000000
     40         33.627702   0.000000
     41         34.086739   0.000000
     42         35.307588   0.000000
     43         37.473000   0.000000
     44         37.868158   0.000000
     45         41.329603   0.000000
     46         41.915190   0.000000
     47         42.601665   0.000000
     48         43.615423   0.000000
     49         44.129757   0.000000
     50         45.689131   0.000000
     51         46.313011   0.000000
     52         46.335176   0.000000
     53         46.626664   0.000000
     54         48.500308   0.000000
     55         49.334249   0.000000
     56         49.856503   0.000000
     57         50.610992   0.000000
     58         52.253096   0.000000
     59         53.896324   0.000000
     60         54.114879   0.000000
     61         54.871387   0.000000
     62         56.395504   0.000000
     63         56.728713   0.000000
     64         57.692417   0.000000
 
  0.3333333E+00  0.3485072E-16  0.0000000E+00  0.7440476E-03
      1         -9.978339   1.000000
      2         -9.649847   1.000000
      3         -8.132887   1.000000
      4         -8.114536   1.000000
      5         -8.034217   1.000000
      6         -7.977508   1.000000
      7         -7.975121   1.000000
      8         -7.944235   1.000000
      9         -7.893049   1.000000
     10         -7.825473   1.000000
     11         -7.526672   1.000000
     12         -6.073717   1.000000
     13         -0.683860   1.000000
     14          0.393807   1.000000
     15          1.340057   1.000000
     16          2.876523   1.000000
     17          3.986075   1.000000
     18          4.490951   1.000000
     19         10.052243   0.000000
     20         10.915743   0.000000
     21         11.936817   0.000000
     22         13.616072   0.000000
     23         15.474776   0.000000
     24         15.817747   0.000000
     25         16.797859   0.000000
     26         18.301337   0.000000
     27         18.477934   0.000000
     28         21.447553   0.000000
     29         22.099243   0.000000
     30         23.597933   0.000000
     31         26.920423   0.000000
     32         28.675472   0.000000
     33         29.439775   0.000000
     34         29.648864   0.000000
     35         30.101542   0.000000
     36         31.324248   0.000000
     37         31.907062   0.000000
     38         32.187147   0.000000
     39         32.387942   0.000000
     40         33.614466   0.000000
     41         34.500793   0.000000
     42         35.603720   0.000000
     43         36.913657   0.000000
     44         38.821211   0.000000
     45         40.836660   0.000000
     46         41.960180   0.000000
     47         42.686860   0.000000
     48         42.903651   0.000000
     49         44.551479   0.000000
     50         44.963848   0.000000
     51         45.928559   0.000000
     52         46.051542   0.000000
     53         47.009015   0.000000
     54         48.559180   0.000000
     55         49.048315   0.000000
     56         49.798318   0.000000
     57         51.461233   0.000000
     58         51.727190   0.000000
     59         53.043866   0.000000
     60         53.837650   0.000000
     61         54.356010   0.000000
     62         55.695553   0.000000
     63         56.357196   0.000000
     64         56.804924   0.000000
 
  0.3750000E+00  0.1848861E-16  0.0000000E+00  0.7440476E-03
      1         -9.899280   1.000000
      2         -9.639612   1.000000
      3         -8.132049   1.000000
      4         -8.112530   1.000000
      5         -8.027213   1.000000
      6         -7.972813   1.000000
      7         -7.958757   1.000000
      8         -7.941448   1.000000
      9         -7.876856   1.000000
     10         -7.822161   1.000000
     11         -7.297311   1.000000
     12         -6.038303   1.000000
     13         -0.802659   1.000000
     14          0.300978   1.000000
     15          0.980482   1.000000
     16          2.722268   1.000000
     17          3.678052   1.000000
     18          4.388771   1.000000
     19         10.202813   0.000000
     20         10.814415   0.000000
     21         11.653253   0.000000
     22         13.641521   0.000000
     23         15.518130   0.000000
     24         15.733557   0.000000
     25         17.084979   0.000000
     26         18.393444   0.000000
     27         18.760378   0.000000
     28         21.580071   0.000000
     29         22.880620   0.000000
     30         23.210409   0.000000
     31         26.793201   0.000000
     32         28.716036   0.000000
     33         29.549534   0.000000
     34         30.165148   0.000000
     35         30.381001   0.000000
     36         31.045245   0.000000
     37         32.170430   0.000000
     38         32.395754   0.000000
     39         32.960257   0.000000
     40         33.961627   0.000000
     41         35.200620   0.000000
     42         35.976510   0.000000
     43         36.324426   0.000000
     44         40.333978   0.000000
     45         40.429063   0.000000
     46         41.245108   0.000000
     47         41.910767   0.000000
     48         42.619942   0.000000
     49         43.960816   0.000000
     50         45.000567   0.000000
     51         45.884410   0.000000
     52         46.434913   0.000000
     53         47.352213   0.000000
     54         47.796239   0.000000
     55         48.755125   0.000000
     56         50.290109   0.000000
     57         51.229630   0.000000
     58         51.939352   0.000000
     59         53.099293   0.000000
     60         53.486301   0.000000
     61         54.302620   0.000000
     62         54.674642   0.000000
     63         55.805676   0.000000
     64         55.905924   0.000000
 
  0.4166667E+00  0.7698964E-17  0.0000000E+00  0.7440476E-03
      1         -9.843594   1.000000
      2         -9.632992   1.000000
      3         -8.133289   1.000000
      4         -8.111970   1.000000
      5         -8.022263   1.000000
      6         -7.973998   1.000000
      7         -7.944990   1.000000
      8         -7.933981   1.000000
      9         -7.862863   1.000000
     10         -7.819100   1.000000
     11         -7.049620   1.000000
     12         -6.059716   1.000000
     13         -0.998464   1.000000
     14          0.204258   1.000000
     15          0.895978   1.000000
     16          2.609510   1.000000
     17          3.380865   1.000000
     18          4.311137   1.000000
     19         10.260815   0.000000
     20         10.764681   0.000000
     21         11.438243   0.000000
     22         13.693136   0.000000
     23         15.536747   0.000000
     24         15.658906   0.000000
     25         17.380945   0.000000
     26         18.429103   0.000000
     27         18.987425   0.000000
     28         21.762476   0.000000
     29         22.927180   0.000000
     30         23.659913   0.000000
     31         26.641236   0.000000
     32         28.635803   0.000000
     33         29.422245   0.000000
     34         30.092140   0.000000
     35         30.409517   0.000000
     36         30.771568   0.000000
     37         31.841600   0.000000
     38         33.413025   0.000000
     39         33.616212   0.000000
     40         35.117008   0.000000
     41         35.411012   0.000000
     42         35.891649   0.000000
     43         37.176680   0.000000
     44         39.296645   0.000000
     45         40.630326   0.000000
     46         41.073240   0.000000
     47         41.521213   0.000000
     48         42.622581   0.000000
     49         43.651571   0.000000
     50         44.666203   0.000000
     51         45.725639   0.000000
     52         46.072033   0.000000
     53         47.652466   0.000000
     54         48.242198   0.000000
     55         49.040116   0.000000
     56         50.281069   0.000000
     57         50.556687   0.000000
     58         51.618135   0.000000
     59         53.030156   0.000000
     60         53.508774   0.000000
     61         54.245113   0.000000
     62         54.456991   0.000000
     63         54.605959   0.000000
     64         55.431919   0.000000
 
  0.4583333E+00  0.3354803E-16  0.0000000E+00  0.7440476E-03
      1         -9.810937   1.000000
      2         -9.629611   1.000000
      3         -8.134948   1.000000
      4         -8.112006   1.000000
      5         -8.019104   1.000000
      6         -7.976004   1.000000
      7         -7.936765   1.000000
      8         -7.927566   1.000000
      9         -7.853492   1.000000
     10         -7.816949   1.000000
     11         -6.824737   1.000000
     12         -6.133106   1.000000
     13         -1.136269   1.000000
     14          0.039636   1.000000
     15          1.003385   1.000000
     16          2.539341   1.000000
     17          3.147920   1.000000
     18          4.262412   1.000000
     19         10.268861   0.000000
     20         10.743353   0.000000
     21         11.309205   0.000000
     22         13.740260   0.000000
     23         15.542404   0.000000
     24         15.609022   0.000000
     25         17.572128   0.000000
     26         18.450685   0.000000
     27         19.130264   0.000000
     28         21.915586   0.000000
     29         22.757225   0.000000
     30         24.299481   0.000000
     31         26.526643   0.000000
     32         28.569252   0.000000
     33         29.229248   0.000000
     34         29.479210   0.000000
     35         30.289888   0.000000
     36         31.161945   0.000000
     37         31.577646   0.000000
     38         34.053026   0.000000
     39         34.332468   0.000000
     40         34.842926   0.000000
     41         36.644431   0.000000
     42         37.116250   0.000000
     43         37.705707   0.000000
     44         37.757223   0.000000
     45         40.018749   0.000000
     46         40.531722   0.000000
     47         41.397044   0.000000
     48         42.676333   0.000000
     49         43.676509   0.000000
     50         44.849173   0.000000
     51         45.363896   0.000000
     52         46.168143   0.000000
     53         47.741872   0.000000
     54         48.854646   0.000000
     55         49.205473   0.000000
     56         49.322358   0.000000
     57         50.613623   0.000000
     58         51.786322   0.000000
     59         52.492023   0.000000
     60         53.193802   0.000000
     61         53.268613   0.000000
     62         54.162448   0.000000
     63         54.488011   0.000000
     64         55.232166   0.000000
 
  0.5000000E+00  0.6147758E-17  0.0000000E+00  0.3720238E-03
      1         -9.800078   1.000000
      2         -9.628727   1.000000
      3         -8.135662   1.000000
      4         -8.112085   1.000000
      5         -8.017957   1.000000
      6         -7.976842   1.000000
      7         -7.934048   1.000000
      8         -7.925239   1.000000
      9         -7.850273   1.000000
     10         -7.816202   1.000000
     11         -6.717486   1.000000
     12         -6.187212   1.000000
     13         -1.181914   1.000000
     14         -0.032243   1.000000
     15          1.066462   1.000000