Automatically generated mesh
     488
Reciprocal lattice
    0.00000000000000    0.00000000000000    0.00000000000000             1
    0.04166666666666    0.00000000000000    0.00000000000000             6
    0.08333333333334    0.00000000000000    0.00000000000000             6
    0.12500000000000    0.00000000000000    0.00000000000000             6
    0.16666666666666    0.00000000000000    0.00000000000000             6
    0.20833333333334   -0.00000000000000    0.00000000000000             6
    0.25000000000000    0.00000000000000    0.00000000000000             6
    0.29166666666666    0.00000000000000    0.00000000000000             6
    0.33333333333334    0.00000000000000    0.00000000000000             6
    0.37500000000000    0.00000000000000    0.00000000000000             6
    0.41666666666666    0.00000000000000    0.00000000000000             6
    0.45833333333334    0.00000000000000    0.00000000000000             6
    0.50000000000000    0.00000000000000    0.00000000000000             3
    0.04166666666666    0.04166666666666    0.00000000000000             6
    0.08333333333334    0.04166666666666    0.00000000000000            12
    0.12500000000000    0.04166666666666    0.00000000000000            12
    0.16666666666666    0.04166666666666    0.00000000000000            12
    0.20833333333334    0.04166666666666    0.00000000000000            12
    0.25000000000000    0.04166666666666    0.00000000000000            12
    0.29166666666666    0.04166666666666    0.00000000000000            12
    0.33333333333334    0.04166666666666    0.00000000000000            12
    0.37500000000000    0.04166666666666    0.00000000000000            12
    0.41666666666666    0.04166666666666    0.00000000000000            12
    0.45833333333334    0.04166666666666    0.00000000000000            12
    0.08333333333334    0.08333333333334    0.00000000000000             6
    0.12500000000000    0.08333333333334    0.00000000000000            12
    0.16666666666666    0.08333333333334    0.00000000000000            12
    0.20833333333334    0.08333333333334    0.00000000000000            12
    0.25000000000000    0.08333333333334    0.00000000000000            12
    0.29166666666666    0.08333333333334    0.00000000000000            12
    0.33333333333334    0.08333333333334    0.00000000000000            12
    0.37500000000000    0.08333333333334    0.00000000000000            12
    0.41666666666666    0.08333333333334    0.00000000000000            12
    0.45833333333334    0.08333333333334    0.00000000000000             6
    0.12500000000000    0.12500000000000    0.00000000000000             6
    0.16666666666666    0.12500000000000    0.00000000000000            12
    0.20833333333334    0.12500000000000    0.00000000000000            12
    0.25000000000000    0.12500000000000    0.00000000000000            12
    0.29166666666666    0.12500000000000    0.00000000000000            12
    0.33333333333334    0.12500000000000    0.00000000000000            12
    0.37500000000000    0.12500000000000    0.00000000000000            12
    0.41666666666666    0.12500000000000    0.00000000000000            12
    0.16666666666666    0.16666666666666    0.00000000000000             6
    0.20833333333334    0.16666666666666    0.00000000000000            12
    0.25000000000000    0.16666666666666    0.00000000000000            12
    0.29166666666666    0.16666666666666    0.00000000000000            12
    0.33333333333334    0.16666666666666    0.00000000000000            12
    0.37500000000000    0.16666666666666    0.00000000000000            12
    0.41666666666666    0.16666666666666    0.00000000000000             6
    0.20833333333334    0.20833333333334    0.00000000000000             6
    0.25000000000000    0.20833333333334    0.00000000000000            12
    0.29166666666666    0.20833333333334    0.00000000000000            12
    0.33333333333334    0.20833333333334    0.00000000000000            12
    0.37500000000000    0.20833333333334    0.00000000000000            12
    0.25000000000000    0.25000000000000    0.00000000000000             6
    0.29166666666666    0.25000000000000    0.00000000000000            12
    0.33333333333334    0.25000000000000    0.00000000000000            12
    0.37500000000000    0.25000000000000    0.00000000000000             6
    0.29166666666666    0.29166666666666    0.00000000000000             6
    0.33333333333334    0.29166666666666    0.00000000000000            12
    0.33333333333334    0.33333333333334    0.00000000000000             2
    0.00000000000000    0.00000000000000    0.07142857142857             2
    0.04166666666666    0.00000000000000    0.07142857142857            12
    0.08333333333334    0.00000000000000    0.07142857142857            12
    0.12500000000000    0.00000000000000    0.07142857142857            12
    0.16666666666666    0.00000000000000    0.07142857142857            12
    0.20833333333334   -0.00000000000000    0.07142857142857            12
    0.25000000000000    0.00000000000000    0.07142857142857            12
    0.29166666666666    0.00000000000000    0.07142857142857            12
    0.33333333333334    0.00000000000000    0.07142857142857            12
    0.37500000000000    0.00000000000000    0.07142857142857            12
    0.41666666666666    0.00000000000000    0.07142857142857            12
    0.45833333333334    0.00000000000000    0.07142857142857            12
    0.50000000000000    0.00000000000000    0.07142857142857             6
    0.04166666666666    0.04166666666666    0.07142857142857            12
    0.08333333333334    0.04166666666666    0.07142857142857            24
    0.12500000000000    0.04166666666666    0.07142857142857            24
    0.16666666666666    0.04166666666666    0.07142857142857            24
    0.20833333333334    0.04166666666666    0.07142857142857            24
    0.25000000000000    0.04166666666666    0.07142857142857            24
    0.29166666666666    0.04166666666666    0.07142857142857            24
    0.33333333333334    0.04166666666666    0.07142857142857            24
    0.37500000000000    0.04166666666666    0.07142857142857            24
    0.41666666666666    0.04166666666666    0.07142857142857            24
    0.45833333333334    0.04166666666666    0.07142857142857            24
    0.08333333333334    0.08333333333334    0.07142857142857            12
    0.12500000000000    0.08333333333334    0.07142857142857            24
    0.16666666666666    0.08333333333334    0.07142857142857            24
    0.20833333333334    0.08333333333334    0.07142857142857            24
    0.25000000000000    0.08333333333334    0.07142857142857            24
    0.29166666666666    0.08333333333334    0.07142857142857            24
    0.33333333333334    0.08333333333334    0.07142857142857            24
    0.37500000000000    0.08333333333334    0.07142857142857            24
    0.41666666666666    0.08333333333334    0.07142857142857            24
    0.45833333333334    0.08333333333334    0.07142857142857            12
    0.12500000000000    0.12500000000000    0.07142857142857            12
    0.16666666666666    0.12500000000000    0.07142857142857            24
    0.20833333333334    0.12500000000000    0.07142857142857            24
    0.25000000000000    0.12500000000000    0.07142857142857            24
    0.29166666666666    0.12500000000000    0.07142857142857            24
    0.33333333333334    0.12500000000000    0.07142857142857            24
    0.37500000000000    0.12500000000000    0.07142857142857            24
    0.41666666666666    0.12500000000000    0.07142857142857            24
    0.16666666666666    0.16666666666666    0.07142857142857            12
    0.20833333333334    0.16666666666666    0.07142857142857            24
    0.25000000000000    0.16666666666666    0.07142857142857            24
    0.29166666666666    0.16666666666666    0.07142857142857            24
    0.33333333333334    0.16666666666666    0.07142857142857            24
    0.37500000000000    0.16666666666666    0.07142857142857            24
    0.41666666666666    0.16666666666666    0.07142857142857            12
    0.20833333333334    0.20833333333334    0.07142857142857            12
    0.25000000000000    0.20833333333334    0.07142857142857            24
    0.29166666666666    0.20833333333334    0.07142857142857            24
    0.33333333333334    0.20833333333334    0.07142857142857            24
    0.37500000000000    0.20833333333334    0.07142857142857            24
    0.25000000000000    0.25000000000000    0.07142857142857            12
    0.29166666666666    0.25000000000000    0.07142857142857            24
    0.33333333333334    0.25000000000000    0.07142857142857            24
    0.37500000000000    0.25000000000000    0.07142857142857            12
    0.29166666666666    0.29166666666666    0.07142857142857            12
    0.33333333333334    0.29166666666666    0.07142857142857            24
    0.33333333333334    0.33333333333334    0.07142857142857             4
    0.00000000000000    0.00000000000000    0.14285714285715             2
    0.04166666666666    0.00000000000000    0.14285714285715            12
    0.08333333333334    0.00000000000000    0.14285714285715            12
    0.12500000000000    0.00000000000000    0.14285714285715            12
    0.16666666666666    0.00000000000000    0.14285714285715            12
    0.20833333333334   -0.00000000000000    0.14285714285715            12
    0.25000000000000    0.00000000000000    0.14285714285715            12
    0.29166666666666    0.00000000000000    0.14285714285715            12
    0.33333333333334    0.00000000000000    0.14285714285715            12
    0.37500000000000    0.00000000000000    0.14285714285715            12
    0.41666666666666    0.00000000000000    0.14285714285715            12
    0.45833333333334    0.00000000000000    0.14285714285715            12
    0.50000000000000    0.00000000000000    0.14285714285715             6
    0.04166666666666    0.04166666666666    0.14285714285715            12
    0.08333333333334    0.04166666666666    0.14285714285715            24
    0.12500000000000    0.04166666666666    0.14285714285715            24
    0.16666666666666    0.04166666666666    0.14285714285715            24
    0.20833333333334    0.04166666666666    0.14285714285715            24
    0.25000000000000    0.04166666666666    0.14285714285715            24
    0.29166666666666    0.04166666666666    0.14285714285715            24
    0.33333333333334    0.04166666666666    0.14285714285715            24
    0.37500000000000    0.04166666666666    0.14285714285715            24
    0.41666666666666    0.04166666666666    0.14285714285715            24
    0.45833333333334    0.04166666666666    0.14285714285715            24
    0.08333333333334    0.08333333333334    0.14285714285715            12
    0.12500000000000    0.08333333333334    0.14285714285715            24
    0.16666666666666    0.08333333333334    0.14285714285715            24
    0.20833333333334    0.08333333333334    0.14285714285715            24
    0.25000000000000    0.08333333333334    0.14285714285715            24
    0.29166666666666    0.08333333333334    0.14285714285715            24
    0.33333333333334    0.08333333333334    0.14285714285715            24
    0.37500000000000    0.08333333333334    0.14285714285715            24
    0.41666666666666    0.08333333333334    0.14285714285715            24
    0.45833333333334    0.08333333333334    0.14285714285715            12
    0.12500000000000    0.12500000000000    0.14285714285715            12
    0.16666666666666    0.12500000000000    0.14285714285715            24
    0.20833333333334    0.12500000000000    0.14285714285715            24
    0.25000000000000    0.12500000000000    0.14285714285715            24
    0.29166666666666    0.12500000000000    0.14285714285715            24
    0.33333333333334    0.12500000000000    0.14285714285715            24
    0.37500000000000    0.12500000000000    0.14285714285715            24
    0.41666666666666    0.12500000000000    0.14285714285715            24
    0.16666666666666    0.16666666666666    0.14285714285715            12
    0.20833333333334    0.16666666666666    0.14285714285715            24
    0.25000000000000    0.16666666666666    0.14285714285715            24
    0.29166666666666    0.16666666666666    0.14285714285715            24
    0.33333333333334    0.16666666666666    0.14285714285715            24
    0.37500000000000    0.16666666666666    0.14285714285715            24
    0.41666666666666    0.16666666666666    0.14285714285715            12
    0.20833333333334    0.20833333333334    0.14285714285715            12
    0.25000000000000    0.20833333333334    0.14285714285715            24
    0.29166666666666    0.20833333333334    0.14285714285715            24
    0.33333333333334    0.20833333333334    0.14285714285715            24
    0.37500000000000    0.20833333333334    0.14285714285715            24
    0.25000000000000    0.25000000000000    0.14285714285715            12
    0.29166666666666    0.25000000000000    0.14285714285715            24
    0.33333333333334    0.25000000000000    0.14285714285715            24
    0.37500000000000    0.25000000000000    0.14285714285715            12
    0.29166666666666    0.29166666666666    0.14285714285715            12
    0.33333333333334    0.29166666666666    0.14285714285715            24
    0.33333333333334    0.33333333333334    0.14285714285715             4
    0.00000000000000    0.00000000000000    0.21428571428572             2
    0.04166666666666    0.00000000000000    0.21428571428572            12
    0.08333333333334    0.00000000000000    0.21428571428572            12
    0.12500000000000    0.00000000000000    0.21428571428572            12
    0.16666666666666    0.00000000000000    0.21428571428572            12
    0.20833333333334   -0.00000000000000    0.21428571428572            12
    0.25000000000000    0.00000000000000    0.21428571428572            12
    0.29166666666666    0.00000000000000    0.21428571428572            12
    0.33333333333334    0.00000000000000    0.21428571428572            12
    0.37500000000000    0.00000000000000    0.21428571428572            12
    0.41666666666666    0.00000000000000    0.21428571428572            12
    0.45833333333334    0.00000000000000    0.21428571428572            12
    0.50000000000000    0.00000000000000    0.21428571428572             6
    0.04166666666666    0.04166666666666    0.21428571428572            12
    0.08333333333334    0.04166666666666    0.21428571428572            24
    0.12500000000000    0.04166666666666    0.21428571428572            24
    0.16666666666666    0.04166666666666    0.21428571428572            24
    0.20833333333334    0.04166666666666    0.21428571428572            24
    0.25000000000000    0.04166666666666    0.21428571428572            24
    0.29166666666666    0.04166666666666    0.21428571428572            24
    0.33333333333334    0.04166666666666    0.21428571428572            24
    0.37500000000000    0.04166666666666    0.21428571428572            24
    0.41666666666666    0.04166666666666    0.21428571428572            24
    0.45833333333334    0.04166666666666    0.21428571428572            24
    0.08333333333334    0.08333333333334    0.21428571428572            12
    0.12500000000000    0.08333333333334    0.21428571428572            24
    0.16666666666666    0.08333333333334    0.21428571428572            24
    0.20833333333334    0.08333333333334    0.21428571428572            24
    0.25000000000000    0.08333333333334    0.21428571428572            24
    0.29166666666666    0.08333333333334    0.21428571428572            24
    0.33333333333334    0.08333333333334    0.21428571428572            24
    0.37500000000000    0.08333333333334    0.21428571428572            24
    0.41666666666666    0.08333333333334    0.21428571428572            24
    0.45833333333334    0.08333333333334    0.21428571428572            12
    0.12500000000000    0.12500000000000    0.21428571428572            12
    0.16666666666666    0.12500000000000    0.21428571428572            24
    0.20833333333334    0.12500000000000    0.21428571428572            24
    0.25000000000000    0.12500000000000    0.21428571428572            24
    0.29166666666666    0.12500000000000    0.21428571428572            24
    0.33333333333334    0.12500000000000    0.21428571428572            24
    0.37500000000000    0.12500000000000    0.21428571428572            24
    0.41666666666666    0.12500000000000    0.21428571428572            24
    0.16666666666666    0.16666666666666    0.21428571428572            12
    0.20833333333334    0.16666666666666    0.21428571428572            24
    0.25000000000000    0.16666666666666    0.21428571428572            24
    0.29166666666666    0.16666666666666    0.21428571428572            24
    0.33333333333334    0.16666666666666    0.21428571428572            24
    0.37500000000000    0.16666666666666    0.21428571428572            24
    0.41666666666666    0.16666666666666    0.21428571428572            12
    0.20833333333334    0.20833333333334    0.21428571428572            12
    0.25000000000000    0.20833333333334    0.21428571428572            24
    0.29166666666666    0.20833333333334    0.21428571428572            24
    0.33333333333334    0.20833333333334    0.21428571428572            24
    0.37500000000000    0.20833333333334    0.21428571428572            24
    0.25000000000000    0.25000000000000    0.21428571428572            12
    0.29166666666666    0.25000000000000    0.21428571428572            24
    0.33333333333334    0.25000000000000    0.21428571428572            24
    0.37500000000000    0.25000000000000    0.21428571428572            12
    0.29166666666666    0.29166666666666    0.21428571428572            12
    0.33333333333334    0.29166666666666    0.21428571428572            24
    0.33333333333334    0.33333333333334    0.21428571428572             4
    0.00000000000000    0.00000000000000    0.28571428571428             2
    0.04166666666666    0.00000000000000    0.28571428571428            12
    0.08333333333334    0.00000000000000    0.28571428571428            12
    0.12500000000000    0.00000000000000    0.28571428571428            12
    0.16666666666666    0.00000000000000    0.28571428571428            12
    0.20833333333334   -0.00000000000000    0.28571428571428            12
    0.25000000000000    0.00000000000000    0.28571428571428            12
    0.29166666666666    0.00000000000000    0.28571428571428            12
    0.33333333333334    0.00000000000000    0.28571428571428            12
    0.37500000000000    0.00000000000000    0.28571428571428            12
    0.41666666666666    0.00000000000000    0.28571428571428            12
    0.45833333333334    0.00000000000000    0.28571428571428            12
    0.50000000000000    0.00000000000000    0.28571428571428             6
    0.04166666666666    0.04166666666666    0.28571428571428            12
    0.08333333333334    0.04166666666666    0.28571428571428            24
    0.12500000000000    0.04166666666666    0.28571428571428            24
    0.16666666666666    0.04166666666666    0.28571428571428            24
    0.20833333333334    0.04166666666666    0.28571428571428            24
    0.25000000000000    0.04166666666666    0.28571428571428            24
    0.29166666666666    0.04166666666666    0.28571428571428            24
    0.33333333333334    0.04166666666666    0.28571428571428            24
    0.37500000000000    0.04166666666666    0.28571428571428            24
    0.41666666666666    0.04166666666666    0.28571428571428            24
    0.45833333333334    0.04166666666666    0.28571428571428            24
    0.08333333333334    0.08333333333334    0.28571428571428            12
    0.12500000000000    0.08333333333334    0.28571428571428            24
    0.16666666666666    0.08333333333334    0.28571428571428            24
    0.20833333333334    0.08333333333334    0.28571428571428            24
    0.25000000000000    0.08333333333334    0.28571428571428            24
    0.29166666666666    0.08333333333334    0.28571428571428            24
    0.33333333333334    0.08333333333334    0.28571428571428            24
    0.37500000000000    0.08333333333334    0.28571428571428            24
    0.41666666666666    0.08333333333334    0.28571428571428            24
    0.45833333333334    0.08333333333334    0.28571428571428            12
    0.12500000000000    0.12500000000000    0.28571428571428            12
    0.16666666666666    0.12500000000000    0.28571428571428            24
    0.20833333333334    0.12500000000000    0.28571428571428            24
    0.25000000000000    0.12500000000000    0.28571428571428            24
    0.29166666666666    0.12500000000000    0.28571428571428            24
    0.33333333333334    0.12500000000000    0.28571428571428            24
    0.37500000000000    0.12500000000000    0.28571428571428            24
    0.41666666666666    0.12500000000000    0.28571428571428            24
    0.16666666666666    0.16666666666666    0.28571428571428            12
    0.20833333333334    0.16666666666666    0.28571428571428            24
    0.25000000000000    0.16666666666666    0.28571428571428            24
    0.29166666666666    0.16666666666666    0.28571428571428            24
    0.33333333333334    0.16666666666666    0.28571428571428            24
    0.37500000000000    0.16666666666666    0.28571428571428            24
    0.41666666666666    0.16666666666666    0.28571428571428            12
    0.20833333333334    0.20833333333334    0.28571428571428            12
    0.25000000000000    0.20833333333334    0.28571428571428            24
    0.29166666666666    0.20833333333334    0.28571428571428            24
    0.33333333333334    0.20833333333334    0.28571428571428            24
    0.37500000000000    0.20833333333334    0.28571428571428            24
    0.25000000000000    0.25000000000000    0.28571428571428            12
    0.29166666666666    0.25000000000000    0.28571428571428            24
    0.33333333333334    0.25000000000000    0.28571428571428            24
    0.37500000000000    0.25000000000000    0.28571428571428            12
    0.29166666666666    0.29166666666666    0.28571428571428            12
    0.33333333333334    0.29166666666666    0.28571428571428            24
    0.33333333333334    0.33333333333334    0.28571428571428             4
    0.00000000000000    0.00000000000000    0.35714285714285             2
    0.04166666666666    0.00000000000000    0.35714285714285            12
    0.08333333333334    0.00000000000000    0.35714285714285            12
    0.12500000000000    0.00000000000000    0.35714285714285            12
    0.16666666666666    0.00000000000000    0.35714285714285            12
    0.20833333333334   -0.00000000000000    0.35714285714285            12
    0.25000000000000    0.00000000000000    0.35714285714285            12
    0.29166666666666    0.00000000000000    0.35714285714285            12
    0.33333333333334    0.00000000000000    0.35714285714285            12
    0.37500000000000    0.00000000000000    0.35714285714285            12
    0.41666666666666    0.00000000000000    0.35714285714285            12
    0.45833333333334    0.00000000000000    0.35714285714285            12
    0.50000000000000    0.00000000000000    0.35714285714285             6
    0.04166666666666    0.04166666666666    0.35714285714285            12
    0.08333333333334    0.04166666666666    0.35714285714285            24
    0.12500000000000    0.04166666666666    0.35714285714285            24
    0.16666666666666    0.04166666666666    0.35714285714285            24
    0.20833333333334    0.04166666666666    0.35714285714285            24
    0.25000000000000    0.04166666666666    0.35714285714285            24
    0.29166666666666    0.04166666666666    0.35714285714285            24
    0.33333333333334    0.04166666666666    0.35714285714285            24
    0.37500000000000    0.04166666666666    0.35714285714285            24
    0.41666666666666    0.04166666666666    0.35714285714285            24
    0.45833333333334    0.04166666666666    0.35714285714285            24
    0.08333333333334    0.08333333333334    0.35714285714285            12
    0.12500000000000    0.08333333333334    0.35714285714285            24
    0.16666666666666    0.08333333333334    0.35714285714285            24
    0.20833333333334    0.08333333333334    0.35714285714285            24
    0.25000000000000    0.08333333333334    0.35714285714285            24
    0.29166666666666    0.08333333333334    0.35714285714285            24
    0.33333333333334    0.08333333333334    0.35714285714285            24
    0.37500000000000    0.08333333333334    0.35714285714285            24
    0.41666666666666    0.08333333333334    0.35714285714285            24
    0.45833333333334    0.08333333333334    0.35714285714285            12
    0.12500000000000    0.12500000000000    0.35714285714285            12
    0.16666666666666    0.12500000000000    0.35714285714285            24
    0.20833333333334    0.12500000000000    0.35714285714285            24
    0.25000000000000    0.12500000000000    0.35714285714285            24
    0.29166666666666    0.12500000000000    0.35714285714285            24
    0.33333333333334    0.12500000000000    0.35714285714285            24
    0.37500000000000    0.12500000000000    0.35714285714285            24
    0.41666666666666    0.12500000000000    0.35714285714285            24
    0.16666666666666    0.16666666666666    0.35714285714285            12
    0.20833333333334    0.16666666666666    0.35714285714285            24
    0.25000000000000    0.16666666666666    0.35714285714285            24
    0.29166666666666    0.16666666666666    0.35714285714285            24
    0.33333333333334    0.16666666666666    0.35714285714285            24
    0.37500000000000    0.16666666666666    0.35714285714285            24
    0.41666666666666    0.16666666666666    0.35714285714285            12
    0.20833333333334    0.20833333333334    0.35714285714285            12
    0.25000000000000    0.20833333333334    0.35714285714285            24
    0.29166666666666    0.20833333333334    0.35714285714285            24
    0.33333333333334    0.20833333333334    0.35714285714285            24
    0.37500000000000    0.20833333333334    0.35714285714285            24
    0.25000000000000    0.25000000000000    0.35714285714285            12
    0.29166666666666    0.25000000000000    0.35714285714285            24
    0.33333333333334    0.25000000000000    0.35714285714285            24
    0.37500000000000    0.25000000000000    0.35714285714285            12
    0.29166666666666    0.29166666666666    0.35714285714285            12
    0.33333333333334    0.29166666666666    0.35714285714285            24
    0.33333333333334    0.33333333333334    0.35714285714285             4
    0.00000000000000    0.00000000000000    0.42857142857143             2
    0.04166666666666    0.00000000000000    0.42857142857143            12
    0.08333333333334    0.00000000000000    0.42857142857143            12
    0.12500000000000    0.00000000000000    0.42857142857143            12
    0.16666666666666    0.00000000000000    0.42857142857143            12
    0.20833333333334   -0.00000000000000    0.42857142857143            12
    0.25000000000000    0.00000000000000    0.42857142857143            12
    0.29166666666666    0.00000000000000    0.42857142857143            12
    0.33333333333334    0.00000000000000    0.42857142857143            12
    0.37500000000000    0.00000000000000    0.42857142857143            12
    0.41666666666666    0.00000000000000    0.42857142857143            12
    0.45833333333334    0.00000000000000    0.42857142857143            12
    0.50000000000000    0.00000000000000    0.42857142857143             6
    0.04166666666666    0.04166666666666    0.42857142857143            12
    0.08333333333334    0.04166666666666    0.42857142857143            24
    0.12500000000000    0.04166666666666    0.42857142857143            24
    0.16666666666666    0.04166666666666    0.42857142857143            24
    0.20833333333334    0.04166666666666    0.42857142857143            24
    0.25000000000000    0.04166666666666    0.42857142857143            24
    0.29166666666666    0.04166666666666    0.42857142857143            24
    0.33333333333334    0.04166666666666    0.42857142857143            24
    0.37500000000000    0.04166666666666    0.42857142857143            24
    0.41666666666666    0.04166666666666    0.42857142857143            24
    0.45833333333334    0.04166666666666    0.42857142857143            24
    0.08333333333334    0.08333333333334    0.42857142857143            12
    0.12500000000000    0.08333333333334    0.42857142857143            24
    0.16666666666666    0.08333333333334    0.42857142857143            24
    0.20833333333334    0.08333333333334    0.42857142857143            24
    0.25000000000000    0.08333333333334    0.42857142857143            24
    0.29166666666666    0.08333333333334    0.42857142857143            24
    0.33333333333334    0.08333333333334    0.42857142857143            24
    0.37500000000000    0.08333333333334    0.42857142857143            24
    0.41666666666666    0.08333333333334    0.42857142857143            24