unknown system                          
   1.00000000000000     
     3.196922    0.000000    0.000000
    -1.598461    2.768616    0.000000
     0.000000    0.000000    5.205169
   Ga   N 
     2     2
Direct
  0.333333  0.666667  0.999137
  0.666667  0.333333  0.499137
  0.333333  0.666667  0.375863
  0.666667  0.333333  0.875863
 
   32   32   56
 0.13953512421E+01 0.15291290924E+01 0.15827656331E+01 0.10472344093E+01 0.30972655955E+00
 -.43888410657E+00 -.16472912459E+01 -.27764159021E+01 -.40414838828E+01 -.53798779789E+01
 -.69737413353E+01 -.94322788006E+01 -.11895524600E+02 -.14705324764E+02 -.16722549247E+02
 -.18098125117E+02 -.18460857626E+02 -.17970885951E+02 -.16678808410E+02 -.14917391534E+02
 -.12588416470E+02 -.94275474858E+01 -.68298914036E+01 -.51981620578E+01 -.43076044808E+01
 -.28769845103E+01 -.15215370844E+01 -.45549203173E+00 0.38997781326E+00 0.10848170923E+01
 0.14873758625E+01 0.15003209710E+01 0.14998319272E+01 0.14847278408E+01 0.14262355017E+01
 0.13865738218E+01 0.99561588727E+00 0.27909590065E+00 -.40274332523E+00 -.16510422748E+01
 -.30745216832E+01 -.41840510697E+01 -.52558070988E+01 -.62949462893E+01 -.79848879363E+01
 -.98333668832E+01 -.11815668261E+02 -.13198240565E+02 -.13962908809E+02 -.14056380782E+02
 -.13303716463E+02 -.11732636853E+02 -.93923744643E+01 -.76711675363E+01 -.62698888387E+01
 -.54638176527E+01 -.43025059387E+01 -.28060799753E+01 -.15646366463E+01 -.52085374438E+00
 0.28979718660E+00 0.90309839904E+00 0.13311061498E+01 0.15629007418E+01 0.14829808863E+01
 0.15284650666E+01 0.16156883164E+01 0.13062343711E+01 0.96660114313E+00 0.66997870538E+00
 -.20971041642E-01 -.61499490099E+00 -.14520241657E+01 -.29569250987E+01 -.44179357686E+01
 -.56186535578E+01 -.63610569686E+01 -.72004188070E+01 -.79240372891E+01 -.88296234195E+01
 -.95558200717E+01 -.97359873364E+01 -.94535051010E+01 -.87859577911E+01 -.82821063678E+01
 -.73632505466E+01 -.66435342054E+01 -.56005808477E+01 -.42155165930E+01 -.29237247138E+01
 -.17314439547E+01 -.68768669453E+00 0.97680129569E-01 0.68242859981E+00 0.10775635340E+01
 0.13290728897E+01 0.10830815095E+01 0.11826133241E+01 0.10689846933E+01 0.10946357430E+01
 0.10167198564E+01 0.70393637126E+00 0.47047212151E+00 -.33096704059E+00 -.13937119220E+01
 -.20898341418E+01 -.30438670538E+01 -.43577017713E+01 -.59033171127E+01 -.71019665698E+01
 -.82670169206E+01 -.90745743558E+01 -.96008988511E+01 -.99478967841E+01 -.99665445287E+01
 -.96981865640E+01 -.88643875643E+01 -.81117163675E+01 -.69686838816E+01 -.56200930514E+01
 -.44048270941E+01 -.32201663242E+01 -.21032937970E+01 -.11164494803E+01 -.25726606655E+00
 0.31714693008E+00 0.68595734483E+00 0.90662055048E+00 0.39283052913E+00 0.51109677259E+00
 0.65607890547E+00 0.51318178010E+00 0.27815514075E+00 0.25208712844E+00 -.38783831546E-01
 -.23900247171E+00 -.59464747799E+00 -.17167048323E+01 -.28479578098E+01 -.37668496022E+01
 -.46707415631E+01 -.60204347339E+01 -.72919190588E+01 -.86645053116E+01 -.98292054303E+01
 -.10614949825E+02 -.10885937625E+02 -.10568248941E+02 -.99705048661E+01 -.87319917373E+01
 -.74266475716E+01 -.61604285633E+01 -.48874718195E+01 -.37194066172E+01 -.26773478917E+01
 -.17016990330E+01 -.91204726173E+00 -.25614232284E+00 0.99971600431E-01 0.29336124543E+00
 -.45839320915E+00 -.41798810379E+00 -.44808059944E+00 -.39156052667E+00 -.29997322822E+00
 -.41394597873E+00 -.36210986728E+00 -.69199157489E+00 -.14109460161E+01 -.17575851351E+01
 -.23122117541E+01 -.33735535696E+01 -.46968842711E+01 -.57994257506E+01 -.73629522113E+01
 -.88633374000E+01 -.10435905863E+02 -.11526889614E+02 -.12003850256E+02 -.12045129493E+02
 -.11369134725E+02 -.10398233252E+02 -.88462373168E+01 -.72000668325E+01 -.57367421472E+01
 -.45048638641E+01 -.33892679015E+01 -.25133063937E+01 -.17047421069E+01 -.11149876089E+01
 -.68606289508E+00 -.52568443303E+00 -.15345601128E+01 -.15660125203E+01 -.15105175962E+01
 -.15651510791E+01 -.16793907705E+01 -.16323184361E+01 -.16863646033E+01 -.16134538526E+01
 -.14089909209E+01 -.20408730691E+01 -.28367547230E+01 -.34539405543E+01 -.41589912678E+01
 -.55529614410E+01 -.70252635510E+01 -.90382284222E+01 -.10825735059E+02 -.11787301667E+02
 -.12485512760E+02 -.12692405428E+02 -.12614020054E+02 -.11852097913E+02 -.10801502778E+02
 -.90898130130E+01 -.71765471984E+01 -.55626142774E+01 -.43801196492E+01 -.33907079008E+01
 -.26850018645E+01 -.21039321664E+01 -.17219812879E+01 -.15685868005E+01 -.28909808884E+01
 -.30082675417E+01 -.31006808512E+01 -.31659545912E+01 -.30462988243E+01 -.30274502985E+01
 -.28083156654E+01 -.27771530689E+01 -.31129172313E+01 -.30520314313E+01 -.30276355285E+01
 -.36918661143E+01 -.46799540112E+01 -.55859556807E+01 -.72719219026E+01 -.93077750348E+01
 -.11033796080E+02 -.12313127632E+02 -.13755386653E+02 -.14808636877E+02 -.14662977048E+02
 -.13695166182E+02 -.12298102665E+02 -.11017746973E+02 -.92471901625E+01 -.71748431126E+01
 -.55575486077E+01 -.44995495275E+01 -.37270519052E+01 -.32284261179E+01 -.29103545745E+01
 -.27949626788E+01 -.43081495899E+01 -.42147403124E+01 -.41788104358E+01 -.42210123542E+01
 -.44219699150E+01 -.43675912165E+01 -.43739117395E+01 -.43747748350E+01 -.40281606621E+01
 -.41038214973E+01 -.44091594419E+01 -.44568378237E+01 -.46686431031E+01 -.57846253395E+01
 -.70362752758E+01 -.92455648831E+01 -.11066404806E+02 -.12627530857E+02 -.15002610748E+02
 -.17133475031E+02 -.18194839097E+02 -.17228511264E+02 -.15034661344E+02 -.12646437667E+02
 -.11106850822E+02 -.92511325352E+01 -.71740522746E+01 -.57253534114E+01 -.48871193583E+01
 -.44205052486E+01 -.42127237236E+01 -.42815746501E+01 -.51836832872E+01 -.53686843642E+01
 -.59653336856E+01 -.67272210687E+01 -.70138725710E+01 -.70416172488E+01 -.64733840336E+01
 -.57118877656E+01 -.55108630926E+01 -.55025791912E+01 -.52873621900E+01 -.55028980136E+01
 -.58571324703E+01 -.60999453513E+01 -.73043520994E+01 -.91127380411E+01 -.11015903358E+02
 -.12694674501E+02 -.15655817554E+02 -.19041445896E+02 -.21087992730E+02 -.21137082824E+02
 -.18981284552E+02 -.15625574461E+02 -.12646271329E+02 -.11024763690E+02 -.90964675162E+01
 -.71922569280E+01 -.61506440112E+01 -.56326098009E+01 -.56127449522E+01 -.54493747244E+01
 -.68129450387E+01 -.81295443148E+01 -.96736746893E+01 -.10943106076E+02 -.12226495637E+02
 -.12695825704E+02 -.12373811312E+02 -.11342207904E+02 -.95853563000E+01 -.78487637649E+01
 -.68867136419E+01 -.64386623469E+01 -.63903386419E+01 -.70623670117E+01 -.73078958703E+01
 -.88616297894E+01 -.10777268702E+02 -.12300050033E+02 -.14979660241E+02 -.18920480132E+02
 -.22326033964E+02 -.23594459902E+02 -.22273012497E+02 -.18979024789E+02 -.15029388057E+02
 -.12299546352E+02 -.10811488592E+02 -.88476394080E+01 -.74137818931E+01 -.69694572162E+01
 -.66597319596E+01 -.62699489071E+01 -.94182156997E+01 -.11609915550E+02 -.13725540020E+02
 -.17122270986E+02 -.19608295790E+02 -.20888014331E+02 -.20786980287E+02 -.19264880367E+02
 -.16823919608E+02 -.14071101435E+02 -.11514694018E+02 -.93181447126E+01 -.78886523995E+01
 -.72587005219E+01 -.82334166605E+01 -.87097029397E+01 -.10404461038E+02 -.11862671949E+02
 -.13720144218E+02 -.17306309760E+02 -.21094910907E+02 -.23584898260E+02 -.23596809359E+02
 -.21137688298E+02 -.17222301818E+02 -.13689251032E+02 -.11856354159E+02 -.10405725601E+02
 -.87242297100E+01 -.81031748084E+01 -.73718487867E+01 -.76801793954E+01 -.12588487436E+02
 -.14872383279E+02 -.19540339545E+02 -.24381800966E+02 -.27466387428E+02 -.29550670377E+02
 -.30269108107E+02 -.29846583617E+02 -.27896990826E+02 -.24300689954E+02 -.19329500557E+02
 -.15212303123E+02 -.12107774893E+02 -.96979517417E+01 -.80341087784E+01 -.89742708430E+01
 -.99100146844E+01 -.11421714489E+02 -.12542271716E+02 -.14631209681E+02 -.18200557639E+02
 -.21094326403E+02 -.22329793592E+02 -.21094167199E+02 -.18194864640E+02 -.14656921498E+02
 -.12611903376E+02 -.11376271778E+02 -.99703305442E+01 -.88554682301E+01 -.82817692954E+01
 -.94015956468E+01 -.14922335534E+02 -.18386968544E+02 -.25590020155E+02 -.30931163137E+02
 -.35705547342E+02 -.38905338715E+02 -.40652909506E+02 -.40432315131E+02 -.38580758073E+02
 -.35460019356E+02 -.31262470470E+02 -.25310696492E+02 -.18810999849E+02 -.14796675794E+02
 -.11705203499E+02 -.89231999832E+01 -.95355766090E+01 -.10704967692E+02 -.11916773044E+02
 -.12895749629E+02 -.14628878692E+02 -.17300915908E+02 -.18918135927E+02 -.19046465612E+02
 -.17138664577E+02 -.14807727968E+02 -.12688715010E+02 -.12048791997E+02 -.10572460677E+02
 -.96941787181E+01 -.87815852552E+01 -.11738247750E+02 -.16682070425E+02 -.22063050087E+02
 -.30828265172E+02 -.36852044654E+02 -.42984103171E+02 -.46914193492E+02 -.49867716724E+02
 -.50644007913E+02 -.50120530789E+02 -.47199070176E+02 -.42818166810E+02 -.37018206937E+02
 -.30579243038E+02 -.22019954564E+02 -.16804775251E+02 -.13174869597E+02 -.95696637509E+01
 -.99109882455E+01 -.10930494491E+02 -.11920310002E+02 -.12545507122E+02 -.13715526914E+02
 -.14972342325E+02 -.15652771302E+02 -.15005764029E+02 -.13756877824E+02 -.12483873640E+02
 -.12003838343E+02 -.10890424268E+02 -.99660268247E+01 -.94502968759E+01 -.13304722331E+02
 -.17971306515E+02 -.24788407578E+02 -.34346510702E+02 -.41622795675E+02 -.48914214364E+02
 -.54062640930E+02 -.57912596667E+02 -.59482592774E+02 -.59472304928E+02 -.57603251063E+02
 -.54170932210E+02 -.48735065588E+02 -.41760291376E+02 -.34429238866E+02 -.24728586750E+02
 -.18038652411E+02 -.13968322742E+02 -.97672490524E+01 -.99091639516E+01 -.10707492240E+02
 -.11430284873E+02 -.11868848157E+02 -.12297776404E+02 -.12689166169E+02 -.12624819134E+02
 -.12312583959E+02 -.11785838231E+02 -.11525534047E+02 -.10616845668E+02 -.99485714860E+01
 -.97345225702E+01 -.14055134333E+02 -.18460611893E+02 -.26229484436E+02 -.36736305716E+02
 -.44885261872E+02 -.53191362853E+02 -.59226484218E+02 -.64017507425E+02 -.66625712021E+02
 -.67831015928E+02 -.66712862587E+02 -.64035139652E+02 -.59319052086E+02 -.53184700504E+02
 -.44833142616E+02 -.36767375430E+02 -.26139888131E+02 -.18545314236E+02 -.13967625351E+02
 -.95666294270E+01 -.95294531468E+01 -.99103724840E+01 -.10411854732E+02 -.10785925097E+02
 -.11019164530E+02 -.11066145181E+02 -.11031804848E+02 -.10824043403E+02 -.10434208547E+02
 -.98296832023E+01 -.96009636332E+01 -.95557238920E+01 -.13961516025E+02 -.18098495648E+02
 -.26144848501E+02 -.37390418222E+02 -.46561872706E+02 -.55924469270E+02 -.62901460686E+02
 -.68610991126E+02 -.71949151783E+02 -.73742235294E+02 -.73686923526E+02 -.72069730757E+02
 -.68447971242E+02 -.62957502803E+02 -.55861196116E+02 -.46530469733E+02 -.37450973260E+02
 -.26140744038E+02 -.18040014857E+02 -.13174875660E+02 -.89203273979E+01 -.89649044816E+01
 -.87025595331E+01 -.88618826269E+01 -.91197615178E+01 -.92523661986E+01 -.93105235998E+01
 -.90378596864E+01 -.88630545381E+01 -.86650873641E+01 -.90746926397E+01 -.88294665891E+01
 -.13198239651E+02 -.16723382722E+02 -.24725164990E+02 -.36780101906E+02 -.46538458296E+02
 -.56731712865E+02 -.64598338664E+02 -.71133136793E+02 -.75451562147E+02 -.78327251304E+02
 -.79008196282E+02 -.78206247863E+02 -.75464510268E+02 -.71172728750E+02 -.64616733368E+02
 -.56832775736E+02 -.46530182958E+02 -.36768179013E+02 -.24729510967E+02 -.16808055408E+02
 -.11709419423E+02 -.80360750862E+01 -.82251800176E+01 -.72942571059E+01 -.72973521209E+01
 -.70380202402E+01 -.72761695924E+01 -.70270436817E+01 -.73636557656E+01 -.72933471009E+01
 -.82674767925E+01 -.79234638964E+01 -.11815892147E+02 -.14706446670E+02 -.22081089936E+02
 -.34412070669E+02 -.44849445997E+02 -.55959819156E+02 -.64618996047E+02 -.72200271205E+02
 -.77202795547E+02 -.80760194961E+02 -.82356987710E+02 -.82526645766E+02 -.80744427107E+02
 -.77313047178E+02 -.72042468667E+02 -.64616389486E+02 -.55861693589E+02 -.44832374693E+02
 -.34429551778E+02 -.22018074206E+02 -.14801086506E+02 -.97081732613E+01 -.72685403286E+01
 -.70616299957E+01 -.60876986628E+01 -.57757664987E+01 -.55821683502E+01 -.55519358398E+01
 -.57984291185E+01 -.60219240609E+01 -.71021631388E+01 -.71994825290E+01 -.98321716453E+01
 -.11895851509E+02 -.19050571916E+02 -.30432728946E+02 -.41821041274E+02 -.53016491975E+02
 -.62997394080E+02 -.71002262076E+02 -.77308163540E+02 -.81666398447E+02 -.84236930753E+02
 -.84972900818E+02 -.84189625393E+02 -.81580333284E+02 -.77313075019E+02 -.71173011845E+02
 -.62956896963E+02 -.53185442521E+02 -.41759587544E+02 -.30577237797E+02 -.18805227017E+02
 -.12108349782E+02 -.78993011565E+01 -.64060189599E+01 -.58669185154E+01 -.46676004973E+01
 -.46758741293E+01 -.41537674775E+01 -.46933194181E+01 -.46705673892E+01 -.59045160057E+01
 -.63600064339E+01 -.79827033586E+01 -.94315650584E+01 -.15238823500E+02 -.25084473562E+02
 -.37227343918E+02 -.48712927888E+02 -.59439247847E+02 -.68494917131E+02 -.75580048971E+02
 -.80680694820E+02 -.84154226094E+02 -.85870222122E+02 -.85873104201E+02 -.84189510783E+02
 -.80744476188E+02 -.75464196905E+02 -.68448534930E+02 -.59318201062E+02 -.48736264391E+02
 -.37017687704E+02 -.25308063010E+02 -.15201659129E+02 -.93099430516E+01 -.64404994477E+01
 -.55129607276E+01 -.44723636339E+01 -.37012845472E+01 -.34562294196E+01 -.33703202286E+01
 -.37661382656E+01 -.43600870699E+01 -.56200541542E+01 -.62932048397E+01 -.69712580399E+01
 -.11339702595E+02 -.19525429056E+02 -.31229609379E+02 -.42689243857E+02 -.54182405336E+02
 -.63864566983E+02 -.72030325201E+02 -.78195779201E+02 -.82505737924E+02 -.84977406425E+02
 -.85870199857E+02 -.84973093695E+02 -.82526620973E+02 -.78206409858E+02 -.72069557449E+02
 -.64035445043E+02 -.54170793981E+02 -.42819723783E+02 -.31265101300E+02 -.19329198415E+02
 -.11503390048E+02 -.68710200248E+01 -.52741179053E+01 -.44053412278E+01 -.30375469021E+01
 -.28469240704E+01 -.23148001248E+01 -.28458206852E+01 -.30459951838E+01 -.44212051241E+01
 -.52561901210E+01 -.53773843272E+01 -.79589933592E+01 -.14013603044E+02 -.24240399172E+02
 -.35571180414E+02 -.47176125853E+02 -.57793492018E+02 -.66761482172E+02 -.73727979069E+02
 -.79006194409E+02 -.82505801157E+02 -.84154256642E+02 -.84236880438E+02 -.82357067527E+02
 -.79007985221E+02 -.73687210748E+02 -.66712580763E+02 -.57603033583E+02 -.47199030713E+02
 -.35462696264E+02 -.24307407349E+02 -.14078996771E+02 -.78486558572E+01 -.54883390210E+01
 -.40818381131E+01 -.30372343685E+01 -.20414405190E+01 -.17613670698E+01 -.17139436127E+01
 -.20868525750E+01 -.29586040578E+01 -.41860740175E+01 -.40413618946E+01 -.55271449250E+01
 -.95536955493E+01 -.16968899449E+02 -.27708567336E+02 -.38775550956E+02 -.49823680700E+02
 -.59462254421E+02 -.67745231686E+02 -.73728033605E+02 -.78195632283E+02 -.80680611411E+02
 -.81666588009E+02 -.80760240531E+02 -.78327474933E+02 -.73741941755E+02 -.67831509561E+02
 -.59471949675E+02 -.50120147986E+02 -.38578967473E+02 -.27896669878E+02 -.16831321454E+02
 -.96039689458E+01 -.55288434079E+01 -.40286211805E+01 -.30990765913E+01 -.13960750858E+01
 -.14097939135E+01 -.59363667265E+00 -.13879555199E+01 -.14495079888E+01 -.30765460497E+01
 -.27801941780E+01 -.43832744817E+01 -.57503968539E+01 -.11236858829E+02 -.19393900105E+02
 -.29695126730E+02 -.40550729537E+02 -.50818008538E+02 -.59461970449E+02 -.66761596768E+02
 -.72030435182E+02 -.75580167452E+02 -.77307870863E+02 -.77202813511E+02 -.75451360003E+02
 -.71949222699E+02 -.66625487508E+02 -.59482532957E+02 -.50644151122E+02 -.40430398301E+02
 -.29842339191E+02 -.19255151157E+02 -.11342279613E+02 -.57320755607E+01 -.44009480591E+01
 -.27900807571E+01 -.16138231926E+01 -.69288016626E+00 -.24333514842E+00 -.33090394239E+00
 -.61239918748E+00 -.16533633930E+01 -.16517639806E+01 -.28568197014E+01 -.43055729036E+01
 -.65930001576E+01 -.12244715136E+02 -.20919986779E+02 -.30190378731E+02 -.40550805552E+02
 -.49824079726E+02 -.57793269309E+02 -.63864279881E+02 -.68495047389E+02 -.71002440043E+02
 -.72200583955E+02 -.71133027232E+02 -.68611291987E+02 -.64017396659E+02 -.57913603445E+02
 -.49867225630E+02 -.40655847810E+02 -.30267162831E+02 -.20784421973E+02 -.12353528966E+02
 -.64536402366E+01 -.43806096169E+01 -.28214048057E+01 -.16957223371E+01 -.36738624545E+00
 -.45954023393E-01 0.46659589469E+00 -.21283736155E-01 -.40331447962E+00 -.43930518732E+00
 -.15989217959E+01 -.30872752314E+01 -.42526159441E+01 -.71107761075E+01 -.12605236634E+02
 -.20920068902E+02 -.29695033266E+02 -.38775616122E+02 -.47176322834E+02 -.54182648122E+02
 -.59438982256E+02 -.62997208773E+02 -.64618861818E+02 -.64598381451E+02 -.62901341187E+02
 -.59226374875E+02 -.54062215128E+02 -.46914498613E+02 -.38906791993E+02 -.29556798811E+02
 -.20894122168E+02 -.12693208264E+02 -.70234294807E+01 -.43420944985E+01 -.30148161401E+01
 -.16273663911E+01 -.41222855645E+00 0.25185366367E+00 0.70516413337E+00 0.67293373621E+00
 0.28134572301E+00 0.31105977186E+00 -.33687628062E+00 -.15638136682E+01 -.31583396465E+01
 -.43464495595E+01 -.71099903651E+01 -.12243041056E+02 -.19393573932E+02 -.27708960596E+02
 -.35571380611E+02 -.42689117431E+02 -.48713004244E+02 -.53016774854E+02 -.55959672526E+02
 -.56731740496E+02 -.55924211489E+02 -.53191701140E+02 -.48913977979E+02 -.42983101457E+02
 -.35702691862E+02 -.27466480702E+02 -.19614994234E+02 -.12246581521E+02 -.70315849239E+01
 -.44213248298E+01 -.30321043627E+01 -.16645611615E+01 -.29368777429E+00 0.27976490438E+00
 0.10199910227E+01 0.97259800935E+00 0.99901003738E+00 0.10441753253E+01 0.54406717958E+00
 -.49904578724E+00 -.14912897319E+01 -.31599809156E+01 -.42540905128E+01 -.65925105256E+01
 -.11235506598E+02 -.16967852310E+02 -.24240252187E+02 -.31229993260E+02 -.37227774844E+02
 -.41821020850E+02 -.44849500514E+02 -.46538340285E+02 -.46561793059E+02 -.44885176802E+02
 -.41622740646E+02 -.36852132526E+02 -.30928352187E+02 -.24375803689E+02 -.17115274241E+02
 -.10943460185E+02 -.67440293567E+01 -.42488339385E+01 -.31823968512E+01 -.15640790645E+01
 -.38964412699E+00 0.50705577935E+00 0.10902964978E+01 0.13058309750E+01 0.13849762832E+01
 0.15801615792E+01 0.10781538100E+01 0.75510138874E+00 -.49967129335E+00 -.15663557471E+01
 -.30891020652E+01 -.43070975114E+01 -.57525654951E+01 -.95541155394E+01 -.14012482182E+02
 -.19523955299E+02 -.25083751520E+02 -.30433521187E+02 -.34412786098E+02 -.36780637913E+02
 -.37390544734E+02 -.36736990813E+02 -.34348025476E+02 -.30831110962E+02 -.25593401059E+02
 -.19539330998E+02 -.13715572919E+02 -.96520868795E+01 -.59461182538E+01 -.41792904245E+01
 -.31160543894E+01 -.15212902124E+01 -.44894304432E+00 0.65141563639E+00 0.10643394877E+01
 0.16154231072E+01 0.14251972969E+01 0.15295640501E+01 0.15140251082E+01 0.10806756801E+01
 0.54634883600E+00 -.33778747717E+00 -.15981593139E+01 -.28550475199E+01 -.43843171626E+01
 -.55310601980E+01 -.79606879855E+01 -.11338766435E+02 -.15237637726E+02 -.19049517914E+02
 -.22080232384E+02 -.24725031519E+02 -.26144575012E+02 -.26228616035E+02 -.24786399250E+02
 -.22063240470E+02 -.18389597391E+02 -.14881908625E+02 -.11622907484E+02 -.81312980766E+01
 -.53526356001E+01 -.41925675847E+01 -.29962310904E+01 -.15654386822E+01 -.41924217373E+00
 0.51157207880E+00 0.11846708922E+01 0.15323929451E+01 0.14859785917E+01 0.14420566272E+01
 0.15958556198E+01 0.16366403336E+01 0.11042895858E+01 0.37642025425E+00 -.38349410924E+00
 -.15164433493E+01 -.26075684935E+01 -.37929653165E+01 -.51139909386E+01 -.65043697208E+01
 -.87296790974E+01 -.11077503715E+02 -.13804419208E+02 -.15799081884E+02 -.17088637176E+02
 -.17431655544E+02 -.16909960270E+02 -.15646105417E+02 -.13929717193E+02 -.11642983969E+02
 -.88159563162E+01 -.64061160313E+01 -.48837063692E+01 -.40993585778E+01 -.26891158559E+01
 -.14558448366E+01 -.40082480750E+00 0.43272586002E+00 0.11374262977E+01 0.15262590668E+01
 0.15587930475E+01 0.15584118333E+01 0.15333720381E+01 0.14655011086E+01 0.13830193708E+01
 0.98065016059E+00 0.29904903821E+00 -.36631532744E+00 -.14879022624E+01 -.28409427308E+01
 -.37999768588E+01 -.48635447240E+01 -.58733236695E+01 -.73865023940E+01 -.89477437561E+01
 -.10665888784E+02 -.11930591372E+02 -.12630111023E+02 -.12762226976E+02 -.12108442079E+02
 -.10708059392E+02 -.86671106597E+01 -.70551717277E+01 -.57649796558E+01 -.50858223285E+01
 -.39233408302E+01 -.25567094362E+01 -.13850281245E+01 -.44793176596E+00 0.31445382602E+00
 0.90848083315E+00 0.13644643246E+01 0.15990797487E+01 0.15224838190E+01 0.15968859916E+01
 0.16597475335E+01 0.13686323954E+01 0.99058992894E+00 0.68560551203E+00 0.87410477384E-01
 -.43901816403E+00 -.11242064347E+01 -.25877555145E+01 -.39041553590E+01 -.50173448386E+01
 -.57044113656E+01 -.65057018094E+01 -.71800587776E+01 -.79582559831E+01 -.85827661411E+01
 -.86857374316E+01 -.84208130222E+01 -.78355752474E+01 -.73562603400E+01 -.66407760820E+01
 -.60260242601E+01 -.50067570120E+01 -.37306720276E+01 -.25126528935E+01 -.14566600606E+01
 -.51159468317E+00 0.16550612722E+00 0.70053536839E+00 0.10581416903E+01 0.13626293629E+01
 0.11356609783E+01 0.12438467825E+01 0.11330198940E+01 0.11163447381E+01 0.98569680380E+00
 0.70963156844E+00 0.49167283037E+00 -.13272359508E+00 -.11130626015E+01 -.16193700986E+01
 -.25127995693E+01 -.37185633809E+01 -.51246318663E+01 -.61154177128E+01 -.70825796742E+01
 -.77086163964E+01 -.80843187202E+01 -.84122163130E+01 -.84416467319E+01 -.82614388221E+01
 -.76399535493E+01 -.69882836745E+01 -.59651578292E+01 -.48749667578E+01 -.37284522383E+01
 -.26928400902E+01 -.16407976890E+01 -.79240024947E+00 -.60481408618E-01 0.37603226558E+00
 0.70333856819E+00 0.91107667749E+00 0.43504712224E+00 0.58006402675E+00 0.74932421333E+00
 0.58092421442E+00 0.37091884850E+00 0.27595663836E+00 0.82934971380E-01 -.48731602575E-01
 -.21295561530E+00 -.12627251480E+01 -.22601506171E+01 -.30499468022E+01 -.37795284390E+01
 -.49432570190E+01 -.59715651358E+01 -.69889196624E+01 -.78925628098E+01 -.83049428718E+01
 -.84734226589E+01 -.82366979840E+01 -.78637459920E+01 -.70257107067E+01 -.61010500633E+01
 -.50268310819E+01 -.40182997908E+01 -.29956516711E+01 -.21092804101E+01 -.12379689567E+01
 -.57150606292E+00 -.59365113188E-01 0.16755898820E+00 0.31752319433E+00 -.40321547282E+00
 -.35716558814E+00 -.37605288462E+00 -.29930158453E+00 -.27616516815E+00 -.36793594184E+00
 -.33899389341E+00 -.51618742885E+00 -.11282229094E+01 -.12842357928E+01 -.17367316501E+01
 -.26414645620E+01 -.37366386738E+01 -.46060012442E+01 -.56532167248E+01 -.66890902588E+01
 -.75330265078E+01 -.84396510051E+01 -.89405147135E+01 -.89889998802E+01 -.83921631103E+01
 -.75965723620E+01 -.66049587803E+01 -.55969056570E+01 -.45309961603E+01 -.35457086006E+01
 -.26629732686E+01 -.19158697340E+01 -.12406598160E+01 -.79092391427E+00 -.51015856651E+00
 -.45175254492E+00 -.14667573599E+01 -.14532090858E+01 -.14393216987E+01 -.14804119459E+01
 -.15869673599E+01 -.15193807887E+01 -.15617805223E+01 -.14311500327E+01 -.11014706427E+01
 -.15705101265E+01 -.22744082449E+01 -.27100963924E+01 -.31958344436E+01 -.42577337083E+01
 -.52566568792E+01 -.64232606784E+01 -.78025044465E+01 -.90286189385E+01 -.97760973925E+01
 -.99896724752E+01 -.98189030014E+01 -.90206373656E+01 -.77864977991E+01 -.64567244453E+01
 -.53292018433E+01 -.42977278228E+01 -.33927965993E+01 -.26643180081E+01 -.21165042719E+01
 -.16412687448E+01 -.14487920569E+01 -.13882777877E+01 -.27005448791E+01 -.29055753295E+01
 -.30300932027E+01 -.30622385717E+01 -.29899977518E+01 -.29439113817E+01 -.27455799606E+01
 -.26101184170E+01 -.28833433955E+01 -.26515645214E+01 -.24959862024E+01 -.29545454762E+01
 -.37319925038E+01 -.43271493417E+01 -.53051193353E+01 -.64923353089E+01 -.80235431806E+01
 -.95211478185E+01 -.10336069995E+02 -.10768196076E+02 -.10688955579E+02 -.10343832748E+02
 -.94801787975E+01 -.80578802405E+01 -.64496258527E+01 -.52561506796E+01 -.42929583532E+01
 -.35406360340E+01 -.30028544694E+01 -.26999826299E+01 -.25012377222E+01 -.25472874384E+01
 -.40992244406E+01 -.40752796763E+01 -.41145168729E+01 -.42099038365E+01 -.43703451269E+01
 -.43137654409E+01 -.42883933294E+01 -.42424091100E+01 -.37942788904E+01 -.37215667095E+01
 -.39248724649E+01 -.38040037709E+01 -.38086920218E+01 -.45308333375E+01 -.52704817084E+01
 -.64219543814E+01 -.81820045388E+01 -.96738253783E+01 -.10546903512E+02 -.11101462208E+02
 -.11370375770E+02 -.11149497480E+02 -.10581309220E+02 -.96865423953E+01 -.81509968916E+01
 -.64534732224E+01 -.53266038664E+01 -.45201433238E+01 -.40181177562E+01 -.37423823475E+01
 -.37280873972E+01 -.39054762182E+01 -.48710357731E+01 -.51587224142E+01 -.57914949741E+01
 -.65023045462E+01 -.68188875243E+01 -.68414538706E+01 -.63208100290E+01 -.55207816389E+01
 -.52931123927E+01 -.52090507659E+01 -.48974293476E+01 -.48840687381E+01 -.50978347423E+01
 -.50088311286E+01 -.56495369135E+01 -.64781358215E+01 -.80275740758E+01 -.97010427314E+01
 -.10688208042E+02 -.11512635105E+02 -.12001821502E+02 -.12021788138E+02 -.11461719305E+02
 -.10671967677E+02 -.96864878212E+01 -.80655158759E+01 -.64633687361E+01 -.55892233896E+01
 -.50180350213E+01 -.48862295400E+01 -.50173410405E+01 -.50734303108E+01 -.63910493972E+01
 -.77222973667E+01 -.93492089821E+01 -.10755893891E+02 -.11989531325E+02 -.12437118469E+02
 -.12102901738E+02 -.11102514556E+02 -.93221882434E+01 -.74392584004E+01 -.64381541957E+01
 -.59923884950E+01 -.57715550856E+01 -.60144286468E+01 -.60438304789E+01 -.65903085829E+01
 -.78185696155E+01 -.94754821043E+01 -.10569850537E+02 -.11423340436E+02 -.12306791891E+02
 -.12658542759E+02 -.12312359314E+02 -.11458836271E+02 -.10574915643E+02 -.94819872511E+01
 -.77966918598E+01 -.66062495148E+01 -.60890683249E+01 -.59662401806E+01 -.60402150452E+01
 -.57654257010E+01 -.88074864098E+01 -.11014206254E+02 -.13462979632E+02 -.16716406029E+02
 -.19160446273E+02 -.20400091337E+02 -.20316950529E+02 -.18834915044E+02 -.16464737233E+02
 -.13710046244E+02 -.11001300440E+02 -.86638719646E+01 -.72316852510E+01 -.66311831362E+01
 -.70111100836E+01 -.70555478253E+01 -.75560296255E+01 -.90280557590E+01 -.10352324118E+02
 -.11179218935E+02 -.12020668779E+02 -.12664435719E+02 -.12661715256E+02 -.12022529572E+02
 -.11141862132E+02 -.10336990134E+02 -.90254789310E+01 -.76038033423E+01 -.70182010883E+01
 -.69809228057E+01 -.66482601718E+01 -.70635625716E+01 -.11642824016E+02 -.14381146855E+02
 -.19120255511E+02 -.23842782647E+02 -.26925920770E+02 -.28980305024E+02 -.29705429738E+02
 -.29274777752E+02 -.27306569911E+02 -.23773532691E+02 -.18933540041E+02 -.14599227622E+02
 -.11309338301E+02 -.88203476773E+01 -.72277088223E+01 -.76956830259E+01 -.78448403738E+01
 -.84275862497E+01 -.97762519903E+01 -.10684403099E+02 -.11358656374E+02 -.12019813610E+02
 -.12311644062E+02 -.12009820792E+02 -.11370405957E+02 -.10681673032E+02 -.98167367206E+01
 -.83994614014E+01 -.78631852749E+01 -.76321239885E+01 -.73555668113E+01 -.86758568180E+01
 -.13934114139E+02 -.17884909290E+02 -.24978821612E+02 -.30295123616E+02 -.34948551733E+02
 -.38124275124E+02 -.39795819656E+02 -.39595318021E+02 -.37793891098E+02 -.34792240843E+02
 -.30559842217E+02 -.24812980803E+02 -.18225412470E+02 -.13848381838E+02 -.10660565438E+02
 -.79492404211E+01 -.81204914096E+01 -.83381083099E+01 -.89080308635E+01 -.10094453549E+02
 -.10681638497E+02 -.11172548687E+02 -.11420296585E+02 -.11519193021E+02 -.11108023514E+02
 -.10767255420E+02 -.99855541131E+01 -.89931289503E+01 -.82404605680E+01 -.82579502890E+01
 -.78312473688E+01 -.10713552118E+02 -.15649128595E+02 -.21553441638E+02 -.30108224857E+02
 -.36140987969E+02 -.42178382516E+02 -.46207836948E+02 -.49104072239E+02 -.49978059465E+02
 -.49358343863E+02 -.46431988995E+02 -.42003070418E+02 -.36283519733E+02 -.29878464998E+02
 -.21508223191E+02 -.15775002170E+02 -.11985439147E+02 -.85342988045E+01 -.84027882365E+01
 -.84867239651E+01 -.89118085305E+01 -.97800091864E+01 -.10347097349E+02 -.10560778445E+02
 -.10684618457E+02 -.10550696303E+02 -.10337982819E+02 -.97740694157E+01 -.89408765452E+01
 -.84775880012E+01 -.84414031645E+01 -.84175390003E+01 -.12109495881E+02 -.16910324198E+02
 -.24315836040E+02 -.33465820060E+02 -.40923655554E+02 -.48112646165E+02 -.53319696188E+02
 -.57100153626E+02 -.58677107869E+02 -.58646269635E+02 -.56845612166E+02 -.53436906970E+02
 -.47975771040E+02 -.41011419278E+02 -.33602484457E+02 -.24226964616E+02 -.16994777306E+02
 -.12668046618E+02 -.87074071191E+01 -.84011206834E+01 -.83402419258E+01 -.84362901464E+01
 -.90349957379E+01 -.94731498185E+01 -.96949093502E+01 -.96706566606E+01 -.95206929538E+01
 -.90268954542E+01 -.84384698801E+01 -.83066487451E+01 -.84131158588E+01 -.86841464766E+01
 -.12761151335E+02 -.17431371118E+02 -.25717821188E+02 -.35840612591E+02 -.44238668705E+02
 -.52380982594E+02 -.58491265267E+02 -.63200944566E+02 -.65880974248E+02 -.67016545970E+02
 -.65941110349E+02 -.63195009766E+02 -.58559561123E+02 -.52404762821E+02 -.44150080114E+02
 -.35861716844E+02 -.25642604081E+02 -.17492995088E+02 -.12667330549E+02 -.85311461322E+01
 -.81150772724E+01 -.78448344453E+01 -.75632611066E+01 -.78274556062E+01 -.80312031730E+01
 -.81818005833E+01 -.80215075196E+01 -.78006425978E+01 -.75312932964E+01 -.78929567099E+01
 -.80844297451E+01 -.85826642216E+01 -.12628839456E+02 -.17088892279E+02 -.25630056526E+02
 -.36493288588E+02 -.45889199305E+02 -.55063120552E+02 -.62170257446E+02 -.67811672650E+02
 -.71184199175E+02 -.72941535114E+02 -.72931470628E+02 -.71305553755E+02 -.67694313196E+02
 -.62166391346E+02 -.55057639316E+02 -.45861249256E+02 -.36558233180E+02 -.25643322347E+02
 -.16996090223E+02 -.11985514180E+02 -.79461750862E+01 -.76875569391E+01 -.70485351578E+01
 -.65903599771E+01 -.64850987440E+01 -.64288350124E+01 -.64953433237E+01 -.64228864384E+01
 -.66888427770E+01 -.69894578808E+01 -.77087558000E+01 -.79580962673E+01 -.11930677384E+02
 -.15799945179E+02 -.24152749073E+02 -.35937382249E+02 -.45843350047E+02 -.55926975197E+02
 -.63881791323E+02 -.70354535952E+02 -.74716829725E+02 -.77544791433E+02 -.78250879490E+02
 -.77399923724E+02 -.74708096073E+02 -.70422650366E+02 -.63893219166E+02 -.55978273065E+02
 -.45860955833E+02 -.35862515836E+02 -.24227593537E+02 -.15777936214E+02 -.10664811322E+02
 -.72293330468E+01 -.70040392957E+01 -.60309373108E+01 -.56424925496E+01 -.52723983553E+01