       N       E                     dE             d eps       ncg     rms          rms(c)
DAV:   1     0.130987358912E+03    0.13099E+03   -0.14295E+04 65920   0.896E+02
DAV:   2    -0.226362941865E+02   -0.15362E+03   -0.14763E+03 78112   0.187E+02
DAV:   3    -0.282464492843E+02   -0.56102E+01   -0.56070E+01 69856   0.264E+01
DAV:   4    -0.282662710226E+02   -0.19822E-01   -0.19821E-01 90496   0.166E+00
DAV:   5    -0.282663238272E+02   -0.52805E-04   -0.52805E-04 72192   0.836E-02    0.108E+01
DAV:   6    -0.243698974853E+02    0.38964E+01   -0.22074E+01 91360   0.194E+01    0.411E+00
DAV:   7    -0.243357246791E+02    0.34173E-01   -0.17440E-01 64288   0.253E+00    0.249E+00
DAV:   8    -0.243198885875E+02    0.15836E-01   -0.57981E-02 91328   0.945E-01    0.579E-01
DAV:   9    -0.243191133828E+02    0.77520E-03   -0.31309E-03 63712   0.511E-01    0.208E-01
DAV:  10    -0.243197545875E+02   -0.64120E-03   -0.83265E-04 88704   0.739E-02    0.344E-02
DAV:  11    -0.243197340706E+02    0.20517E-04   -0.76776E-05 66208   0.211E-02    0.132E-02
DAV:  12    -0.243197403481E+02   -0.62775E-05   -0.76583E-06 90176   0.854E-03
   1 F= -.24319740E+02 E0= -.24319740E+02  d E =-.243197E+02
