 vasp.6.3.1 04May22 (build Jun 07 2022 20:23:04) complex                        
  
 executed on             LinuxIFC date 2024.03.28  16:47:56
 running on   32 total cores
 distrk:  each k-point on   32 cores,    1 groups
 distr:  one band on NCORE=   1 cores,   32 groups


--------------------------------------------------------------------------------------------------------


 INCAR:
   ALGO = Normal
   EDIFF = 1e-05
   EMAX = 20
   EMIN = -20.01
   ENCUT = 400.0
   IBRION = 2
   ISIF = 0
   ISMEAR = 0
   KPAR = 1
   LAECHG = True
   LASPH = True
   LCHARG = False
   LORBIT = 11
   LREAL = False
   LVTOT = True
   LWAVE = False
   NBANDS = 34
   NEDOS = 4002
   NELM = 100
   NSW = 1
   PREC = Normal
   SIGMA = 0.1

 POTCAR:    PAW_PBE Ga_d 06Jul2010                
 POTCAR:    PAW_PBE N 08Apr2002                   
 WARNING: For LVTOT=.TRUE., VASP.5.x writes the TOTAL local potential to the
     file LOCPOT. If you want only the Hartree contributions, use LVHAR=.TRUE.
     instead. 

 -----------------------------------------------------------------------------
|                                                                             |
|           W    W    AA    RRRRR   N    N  II  N    N   GGGG   !!!           |
|           W    W   A  A   R    R  NN   N  II  NN   N  G    G  !!!           |
|           W    W  A    A  R    R  N N  N  II  N N  N  G       !!!           |
|           W WW W  AAAAAA  RRRRR   N  N N  II  N  N N  G  GGG   !            |
|           WW  WW  A    A  R   R   N   NN  II  N   NN  G    G                |
|           W    W  A    A  R    R  N    N  II  N    N   GGGG   !!!           |
|                                                                             |
|     For optimal performance we recommend to set                             |
|       NCORE = 2 up to number-of-cores-per-socket                            |
|     NCORE specifies how many cores store one orbital (NPAR=cpu/NCORE).      |
|     This setting can greatly improve the performance of VASP for DFT.       |
|     The default, NCORE=1 might be grossly inefficient on modern             |
|     multi-core architectures or massively parallel machines. Do your        |
|     own testing! More info at https://www.vasp.at/wiki/index.php/NCORE      |
|     Unfortunately you need to use the default for GW and RPA                |
|     calculations (for HF NCORE is supported but not extensively tested      |
|     yet).                                                                   |
|                                                                             |
 -----------------------------------------------------------------------------

 POTCAR:    PAW_PBE Ga_d 06Jul2010                
   SHA256 =  a60ddf36e14f00ea098d9e3914b3745f1b7105e68786148f49ae384e44b4226c Ga_d/POTCAR           
   COPYR  = (c) Copyright 06Jul2010 Georg Kresse                                                    
   COPYR  = This file is part of the software VASP. Any use, copying, and all other rights are regul
   COPYR  = If you do not have a valid VASP license, you may not use, copy or distribute this file. 
   VRHFIN =Ga: s2p1                                                                                 
   LEXCH  = PE                                                                                      
   EATOM  =  2148.8298 eV,  157.9345 Ry                                                             
                                                                                                    
   TITEL  = PAW_PBE Ga_d 06Jul2010                                                                  
   LULTRA =        F    use ultrasoft PP ?                                                          
   IUNSCR =        1    unscreen: 0-lin 1-nonlin 2-no                                               
   RPACOR =    1.700    partial core radius                                                         
   POMASS =   69.723; ZVAL   =   13.000    mass and valenz                                          
   RCORE  =    2.300    outmost cutoff radius                                                       
   RWIGS  =    2.300; RWIGS  =    1.217    wigner-seitz radius (au A)                               
   ENMAX  =  282.691; ENMIN  =  212.018 eV                                                          
   ICORE  =        3    local potential                                                             
   LCOR   =        T    correct aug charges                                                         
   LPAW   =        T    paw PP                                                                      
   EAUG   =  490.690                                                                                
   DEXC   =    0.000                                                                                
   RMAX   =    2.341    core radius for proj-oper                                                   
   RAUG   =    1.300    factor for augmentation sphere                                              
   RDEP   =    2.413    radius for radial grids                                                     
   RDEPT  =    1.856    core radius for aug-charge                                                  
                                                                                                    
   Atomic configuration                                                                             
    9 entries                                                                                       
     n  l   j            E        occ.                                                              
     1  0  0.50    -10228.7831   2.0000                                                             
     2  0  0.50     -1262.1604   2.0000                                                             
     2  1  1.50     -1098.6333   6.0000                                                             
     3  0  0.50      -148.1110   2.0000                                                             
     3  1  1.50       -98.8436   6.0000                                                             
     3  2  2.50       -19.1549  10.0000                                                             
     4  0  0.50        -8.9483   2.0000                                                             
     4  1  0.50        -2.5791   1.0000                                                             
     4  3  2.50        -2.7416   0.0000                                                             
   Description                                                                                      
     l       E           TYP  RCUT    TYP  RCUT                                                     
     2    -19.1549037     23  2.300                                                                 
     2     -5.4423304     23  2.300                                                                 
     0     -8.9483111     23  2.300                                                                 
     0     68.0291300     23  2.300                                                                 
     1     -2.5790802     23  2.100                                                                 
     1     81.6349560     23  2.300                                                                 
     3      6.8029130     23  2.300                                                                 
  local pseudopotential read in
  partial core-charges read in
  partial kinetic energy density read in
  atomic valenz-charges read in
  non local Contribution for L=           2  read in
    real space projection operators read in
  non local Contribution for L=           2  read in
    real space projection operators read in
  non local Contribution for L=           0  read in
    real space projection operators read in
  non local Contribution for L=           0  read in
    real space projection operators read in
  non local Contribution for L=           1  read in
    real space projection operators read in
  non local Contribution for L=           1  read in
    real space projection operators read in
    PAW grid and wavefunctions read in
 
   number of l-projection  operators is LMAX  =           6
   number of lm-projection operators is LMMAX =          18
 
 POTCAR:    PAW_PBE N 08Apr2002                   
   SHA256 =  e053789ff3a61a86a1b75d8a110fcc91f86041011e7b0817c7c99e4e8a6349d7 N/POTCAR              
   COPYR  = (c) Copyright 08Apr2002 Georg Kresse                                                    
   COPYR  = This file is part of the software VASP. Any use, copying, and all other rights are regul
   COPYR  = If you do not have a valid VASP license, you may not use, copy or distribute this file. 
   VRHFIN =N: s2p3                                                                                  
   LEXCH  = PE                                                                                      
   EATOM  =   264.5486 eV,   19.4438 Ry                                                             
                                                                                                    
   TITEL  = PAW_PBE N 08Apr2002                                                                     
   LULTRA =        F    use ultrasoft PP ?                                                          
   IUNSCR =        1    unscreen: 0-lin 1-nonlin 2-no                                               
   RPACOR =    1.200    partial core radius                                                         
   POMASS =   14.001; ZVAL   =    5.000    mass and valenz                                          
   RCORE  =    1.500    outmost cutoff radius                                                       
   RWIGS  =    1.400; RWIGS  =    0.741    wigner-seitz radius (au A)                               
   ENMAX  =  400.000; ENMIN  =  300.000 eV                                                          
   ICORE  =        2    local potential                                                             
   LCOR   =        T    correct aug charges                                                         
   LPAW   =        T    paw PP                                                                      
   EAUG   =  627.112                                                                                
   DEXC   =    0.000                                                                                
   RMAX   =    1.529    core radius for proj-oper                                                   
   RAUG   =    1.300    factor for augmentation sphere                                              
   RDEP   =    1.514    radius for radial grids                                                     
   RDEPT  =    1.338    core radius for aug-charge                                                  
                                                                                                    
   Atomic configuration                                                                             
    4 entries                                                                                       
     n  l   j            E        occ.                                                              
     1  0  0.50      -384.7179   2.0000                                                             
     2  0  0.50       -18.5828   2.0000                                                             
     2  1  0.50        -7.0898   3.0000                                                             
     3  2  1.50        -6.8029   0.0000                                                             
   Description                                                                                      
     l       E           TYP  RCUT    TYP  RCUT                                                     
     0    -18.5828119     23  1.200                                                                 
     0    -13.5018863     23  1.200                                                                 
     1     -7.0897853     23  1.500                                                                 
     1      9.5240782     23  1.500                                                                 
     2     -6.8029130      7  1.500                                                                 
  local pseudopotential read in
  partial core-charges read in
  partial kinetic energy density read in
  atomic valenz-charges read in
  non local Contribution for L=           0  read in
    real space projection operators read in
  non local Contribution for L=           0  read in
    real space projection operators read in
  non local Contribution for L=           1  read in
    real space projection operators read in
  non local Contribution for L=           1  read in
    real space projection operators read in
    PAW grid and wavefunctions read in
 
   number of l-projection  operators is LMAX  =           4
   number of lm-projection operators is LMMAX =           8
 
  PAW_PBE Ga_d 06Jul2010                :
 energy of atom  1       EATOM=-2148.8298
 kinetic energy error for atom=    0.0102 (will be added to EATOM!!)
  PAW_PBE N 08Apr2002                   :
 energy of atom  2       EATOM= -264.5486
 kinetic energy error for atom=    0.0736 (will be added to EATOM!!)
 
 
 POSCAR: Ga2 N2
  positions in direct lattice
  No initial velocities read in
 exchange correlation table for  LEXCH =        8
   RHO(1)=    0.500       N(1)  =     2000
   RHO(2)=  100.500       N(2)  =     4000

 VTST: version 4.2, (08/11/21)

 CHAIN: initializing optimizer
 
 OPT: Using VASP Conjugate-Gradient optimizer
 CHAIN: Read ICHAIN            0
 
 POSCAR: Ga2 N2
  positions in direct lattice
  No initial velocities read in
 


--------------------------------------------------------------------------------------------------------


 ion  position               nearest neighbor table
   1  0.333  0.667  0.999-   4 1.95   4 1.95   4 1.95   3 1.96
   2  0.667  0.333  0.499-   3 1.95   3 1.95   3 1.95   4 1.96
   3  0.333  0.667  0.376-   2 1.95   2 1.95   2 1.95   1 1.96
   4  0.667  0.333  0.876-   1 1.95   1 1.95   1 1.95   2 1.96
 
  LATTYP: Found a hexagonal cell.
 ALAT       =     3.1969218337
 C/A-ratio  =     1.6281816284
  
  Lattice vectors:
  
 A1 = (   3.1969218337,   0.0000000000,   0.0000000000)
 A2 = (  -1.5984609169,   2.7686155219,   0.0000000000)
 A3 = (   0.0000000000,   0.0000000000,   5.2051693970)


Analysis of symmetry for initial positions (statically):
=====================================================================
 Subroutine PRICEL returns:
 Original cell was already a primitive cell.
 

 Routine SETGRP: Setting up the symmetry group for a 
 hexagonal supercell.


 Subroutine GETGRP returns: Found 12 space group operations
 (whereof  6 operations were pure point group operations)
 out of a pool of 24 trial point group operations.


The static configuration has the point symmetry C_3v.
 The point group associated with its full space group is C_6v.


Analysis of symmetry for dynamics (positions and initial velocities):
=====================================================================
 Subroutine PRICEL returns:
 Original cell was already a primitive cell.
 

 Routine SETGRP: Setting up the symmetry group for a 
 hexagonal supercell.


 Subroutine GETGRP returns: Found 12 space group operations
 (whereof  6 operations were pure point group operations)
 out of a pool of 24 trial point group operations.


The dynamic configuration has the point symmetry C_3v.
 The point group associated with its full space group is C_6v.


 Subroutine INISYM returns: Found 12 space group operations
 (whereof  6 operations are pure point group operations),
 and found     1 'primitive' translations


----------------------------------------------------------------------------------------

                                     Primitive cell                                     

  volume of cell :      46.0712

  direct lattice vectors                    reciprocal lattice vectors
     3.196921834  0.000000000  0.000000000     0.312800892  0.180595679  0.000000000
    -1.598460917  2.768615522  0.000000000     0.000000000  0.361191358  0.000000000
     0.000000000  0.000000000  5.205169397     0.000000000  0.000000000  0.192116706

  length of vectors
     3.196921834  3.196921834  5.205169397     0.361191358  0.361191358  0.192116706

  position of ions in fractional coordinates (direct lattice)
     0.333333333  0.666666667  0.999137235
     0.666666667  0.333333333  0.499137235
     0.333333333  0.666666667  0.375862765
     0.666666667  0.333333333  0.875862765

  ion indices of the primitive-cell ions
   primitive index   ion index
                 1           1
                 2           2
                 3           3
                 4           4

----------------------------------------------------------------------------------------

 
 
 KPOINTS: Num irrep kpoints: 488                  

Automatic generation of k-mesh.
 Grid dimensions read from file:
 generate k-points for:   24   24   14

 Generating k-lattice:

  Cartesian coordinates                     Fractional coordinates (reciprocal lattice)
     0.013033370  0.007524820  0.000000000     0.041666667  0.000000000  0.000000000
     0.000000000  0.015049640  0.000000000     0.000000000  0.041666667  0.000000000
     0.000000000  0.000000000  0.013722622     0.000000000  0.000000000  0.071428571

  Length of vectors
     0.015049640  0.015049640  0.013722622

  Shift w.r.t. Gamma in fractional coordinates (k-lattice)
     0.000000000  0.000000000  0.000000000

 
 Subroutine IBZKPT returns following result:
 ===========================================
 
 Found    488 irreducible k-points:
 
 Following reciprocal coordinates:
            Coordinates               Weight
  0.000000  0.000000  0.000000      1.000000
  0.041667  0.000000  0.000000      6.000000
  0.083333  0.000000  0.000000      6.000000
  0.125000  0.000000  0.000000      6.000000
  0.166667  0.000000  0.000000      6.000000
  0.208333 -0.000000  0.000000      6.000000
  0.250000  0.000000  0.000000      6.000000
  0.291667  0.000000  0.000000      6.000000
  0.333333  0.000000  0.000000      6.000000
  0.375000  0.000000  0.000000      6.000000
  0.416667  0.000000  0.000000      6.000000
  0.458333  0.000000  0.000000      6.000000
  0.500000  0.000000  0.000000      3.000000
  0.041667  0.041667  0.000000      6.000000
  0.083333  0.041667  0.000000     12.000000
  0.125000  0.041667  0.000000     12.000000
  0.166667  0.041667  0.000000     12.000000
  0.208333  0.041667  0.000000     12.000000
  0.250000  0.041667  0.000000     12.000000
  0.291667  0.041667  0.000000     12.000000
  0.333333  0.041667  0.000000     12.000000
  0.375000  0.041667  0.000000     12.000000
  0.416667  0.041667  0.000000     12.000000
  0.458333  0.041667  0.000000     12.000000
  0.083333  0.083333  0.000000      6.000000
  0.125000  0.083333  0.000000     12.000000
  0.166667  0.083333  0.000000     12.000000
  0.208333  0.083333  0.000000     12.000000
  0.250000  0.083333  0.000000     12.000000
  0.291667  0.083333  0.000000     12.000000
  0.333333  0.083333  0.000000     12.000000
  0.375000  0.083333  0.000000     12.000000
  0.416667  0.083333  0.000000     12.000000
  0.458333  0.083333  0.000000      6.000000
  0.125000  0.125000  0.000000      6.000000
  0.166667  0.125000  0.000000     12.000000
  0.208333  0.125000  0.000000     12.000000
  0.250000  0.125000  0.000000     12.000000
  0.291667  0.125000  0.000000     12.000000
  0.333333  0.125000  0.000000     12.000000
  0.375000  0.125000  0.000000     12.000000
  0.416667  0.125000  0.000000     12.000000
  0.166667  0.166667  0.000000      6.000000
  0.208333  0.166667  0.000000     12.000000
  0.250000  0.166667  0.000000     12.000000
  0.291667  0.166667  0.000000     12.000000
  0.333333  0.166667  0.000000     12.000000
  0.375000  0.166667  0.000000     12.000000
  0.416667  0.166667  0.000000      6.000000
  0.208333  0.208333  0.000000      6.000000
  0.250000  0.208333  0.000000     12.000000
  0.291667  0.208333  0.000000     12.000000
  0.333333  0.208333  0.000000     12.000000
  0.375000  0.208333  0.000000     12.000000
  0.250000  0.250000  0.000000      6.000000
  0.291667  0.250000  0.000000     12.000000
  0.333333  0.250000  0.000000     12.000000
  0.375000  0.250000  0.000000      6.000000
  0.291667  0.291667  0.000000      6.000000
  0.333333  0.291667  0.000000     12.000000
  0.333333  0.333333  0.000000      2.000000
  0.000000  0.000000  0.071429      2.000000
  0.041667  0.000000  0.071429     12.000000
  0.083333  0.000000  0.071429     12.000000
  0.125000  0.000000  0.071429     12.000000
  0.166667  0.000000  0.071429     12.000000
  0.208333 -0.000000  0.071429     12.000000
  0.250000  0.000000  0.071429     12.000000
  0.291667  0.000000  0.071429     12.000000
  0.333333  0.000000  0.071429     12.000000
  0.375000  0.000000  0.071429     12.000000
  0.416667  0.000000  0.071429     12.000000
  0.458333  0.000000  0.071429     12.000000
  0.500000  0.000000  0.071429      6.000000
  0.041667  0.041667  0.071429     12.000000
  0.083333  0.041667  0.071429     24.000000
  0.125000  0.041667  0.071429     24.000000
  0.166667  0.041667  0.071429     24.000000
  0.208333  0.041667  0.071429     24.000000
  0.250000  0.041667  0.071429     24.000000
  0.291667  0.041667  0.071429     24.000000
  0.333333  0.041667  0.071429     24.000000
  0.375000  0.041667  0.071429     24.000000
  0.416667  0.041667  0.071429     24.000000
  0.458333  0.041667  0.071429     24.000000
  0.083333  0.083333  0.071429     12.000000
  0.125000  0.083333  0.071429     24.000000
  0.166667  0.083333  0.071429     24.000000
  0.208333  0.083333  0.071429     24.000000
  0.250000  0.083333  0.071429     24.000000
  0.291667  0.083333  0.071429     24.000000
  0.333333  0.083333  0.071429     24.000000
  0.375000  0.083333  0.071429     24.000000
  0.416667  0.083333  0.071429     24.000000
  0.458333  0.083333  0.071429     12.000000
  0.125000  0.125000  0.071429     12.000000
  0.166667  0.125000  0.071429     24.000000
  0.208333  0.125000  0.071429     24.000000
  0.250000  0.125000  0.071429     24.000000
  0.291667  0.125000  0.071429     24.000000
  0.333333  0.125000  0.071429     24.000000
  0.375000  0.125000  0.071429     24.000000
  0.416667  0.125000  0.071429     24.000000
  0.166667  0.166667  0.071429     12.000000
  0.208333  0.166667  0.071429     24.000000
  0.250000  0.166667  0.071429     24.000000
  0.291667  0.166667  0.071429     24.000000
  0.333333  0.166667  0.071429     24.000000
  0.375000  0.166667  0.071429     24.000000
  0.416667  0.166667  0.071429     12.000000
  0.208333  0.208333  0.071429     12.000000
  0.250000  0.208333  0.071429     24.000000
  0.291667  0.208333  0.071429     24.000000
  0.333333  0.208333  0.071429     24.000000
  0.375000  0.208333  0.071429     24.000000
  0.250000  0.250000  0.071429     12.000000
  0.291667  0.250000  0.071429     24.000000
  0.333333  0.250000  0.071429     24.000000
  0.375000  0.250000  0.071429     12.000000
  0.291667  0.291667  0.071429     12.000000
  0.333333  0.291667  0.071429     24.000000
  0.333333  0.333333  0.071429      4.000000
  0.000000  0.000000  0.142857      2.000000
  0.041667  0.000000  0.142857     12.000000
  0.083333  0.000000  0.142857     12.000000
  0.125000  0.000000  0.142857     12.000000
  0.166667  0.000000  0.142857     12.000000
  0.208333 -0.000000  0.142857     12.000000
  0.250000  0.000000  0.142857     12.000000
  0.291667  0.000000  0.142857     12.000000
  0.333333  0.000000  0.142857     12.000000
  0.375000  0.000000  0.142857     12.000000
  0.416667  0.000000  0.142857     12.000000
  0.458333  0.000000  0.142857     12.000000
  0.500000  0.000000  0.142857      6.000000
  0.041667  0.041667  0.142857     12.000000
  0.083333  0.041667  0.142857     24.000000
  0.125000  0.041667  0.142857     24.000000
  0.166667  0.041667  0.142857     24.000000
  0.208333  0.041667  0.142857     24.000000
  0.250000  0.041667  0.142857     24.000000
  0.291667  0.041667  0.142857     24.000000
  0.333333  0.041667  0.142857     24.000000
  0.375000  0.041667  0.142857     24.000000
  0.416667  0.041667  0.142857     24.000000
  0.458333  0.041667  0.142857     24.000000
  0.083333  0.083333  0.142857     12.000000
  0.125000  0.083333  0.142857     24.000000
  0.166667  0.083333  0.142857     24.000000
  0.208333  0.083333  0.142857     24.000000
  0.250000  0.083333  0.142857     24.000000
  0.291667  0.083333  0.142857     24.000000
  0.333333  0.083333  0.142857     24.000000
  0.375000  0.083333  0.142857     24.000000
  0.416667  0.083333  0.142857     24.000000
  0.458333  0.083333  0.142857     12.000000
  0.125000  0.125000  0.142857     12.000000
  0.166667  0.125000  0.142857     24.000000
  0.208333  0.125000  0.142857     24.000000
  0.250000  0.125000  0.142857     24.000000
  0.291667  0.125000  0.142857     24.000000
  0.333333  0.125000  0.142857     24.000000
  0.375000  0.125000  0.142857     24.000000
  0.416667  0.125000  0.142857     24.000000
  0.166667  0.166667  0.142857     12.000000
  0.208333  0.166667  0.142857     24.000000
  0.250000  0.166667  0.142857     24.000000
  0.291667  0.166667  0.142857     24.000000
  0.333333  0.166667  0.142857     24.000000
  0.375000  0.166667  0.142857     24.000000
  0.416667  0.166667  0.142857     12.000000
  0.208333  0.208333  0.142857     12.000000
  0.250000  0.208333  0.142857     24.000000
  0.291667  0.208333  0.142857     24.000000
  0.333333  0.208333  0.142857     24.000000
  0.375000  0.208333  0.142857     24.000000
  0.250000  0.250000  0.142857     12.000000
  0.291667  0.250000  0.142857     24.000000
  0.333333  0.250000  0.142857     24.000000
  0.375000  0.250000  0.142857     12.000000
  0.291667  0.291667  0.142857     12.000000
  0.333333  0.291667  0.142857     24.000000
  0.333333  0.333333  0.142857      4.000000
  0.000000  0.000000  0.214286      2.000000
  0.041667  0.000000  0.214286     12.000000
  0.083333  0.000000  0.214286     12.000000
  0.125000  0.000000  0.214286     12.000000
  0.166667  0.000000  0.214286     12.000000
  0.208333 -0.000000  0.214286     12.000000
  0.250000  0.000000  0.214286     12.000000
  0.291667  0.000000  0.214286     12.000000
  0.333333  0.000000  0.214286     12.000000
  0.375000  0.000000  0.214286     12.000000
  0.416667  0.000000  0.214286     12.000000
  0.458333  0.000000  0.214286     12.000000
  0.500000  0.000000  0.214286      6.000000
  0.041667  0.041667  0.214286     12.000000
  0.083333  0.041667  0.214286     24.000000
  0.125000  0.041667  0.214286     24.000000
  0.166667  0.041667  0.214286     24.000000
  0.208333  0.041667  0.214286     24.000000
  0.250000  0.041667  0.214286     24.000000
  0.291667  0.041667  0.214286     24.000000
  0.333333  0.041667  0.214286     24.000000
  0.375000  0.041667  0.214286     24.000000
  0.416667  0.041667  0.214286     24.000000
  0.458333  0.041667  0.214286     24.000000
  0.083333  0.083333  0.214286     12.000000
  0.125000  0.083333  0.214286     24.000000
  0.166667  0.083333  0.214286     24.000000
  0.208333  0.083333  0.214286     24.000000
  0.250000  0.083333  0.214286     24.000000
  0.291667  0.083333  0.214286     24.000000
  0.333333  0.083333  0.214286     24.000000
  0.375000  0.083333  0.214286     24.000000
  0.416667  0.083333  0.214286     24.000000
  0.458333  0.083333  0.214286     12.000000
  0.125000  0.125000  0.214286     12.000000
  0.166667  0.125000  0.214286     24.000000
  0.208333  0.125000  0.214286     24.000000
  0.250000  0.125000  0.214286     24.000000
  0.291667  0.125000  0.214286     24.000000
  0.333333  0.125000  0.214286     24.000000
  0.375000  0.125000  0.214286     24.000000
  0.416667  0.125000  0.214286     24.000000
  0.166667  0.166667  0.214286     12.000000
  0.208333  0.166667  0.214286     24.000000
  0.250000  0.166667  0.214286     24.000000
  0.291667  0.166667  0.214286     24.000000
  0.333333  0.166667  0.214286     24.000000
  0.375000  0.166667  0.214286     24.000000
  0.416667  0.166667  0.214286     12.000000
  0.208333  0.208333  0.214286     12.000000
  0.250000  0.208333  0.214286     24.000000
  0.291667  0.208333  0.214286     24.000000
  0.333333  0.208333  0.214286     24.000000
  0.375000  0.208333  0.214286     24.000000
  0.250000  0.250000  0.214286     12.000000
  0.291667  0.250000  0.214286     24.000000
  0.333333  0.250000  0.214286     24.000000
  0.375000  0.250000  0.214286     12.000000
  0.291667  0.291667  0.214286     12.000000
  0.333333  0.291667  0.214286     24.000000
  0.333333  0.333333  0.214286      4.000000
  0.000000  0.000000  0.285714      2.000000
  0.041667  0.000000  0.285714     12.000000
  0.083333  0.000000  0.285714     12.000000
  0.125000  0.000000  0.285714     12.000000
  0.166667  0.000000  0.285714     12.000000
  0.208333 -0.000000  0.285714     12.000000
  0.250000  0.000000  0.285714     12.000000
  0.291667  0.000000  0.285714     12.000000
  0.333333  0.000000  0.285714     12.000000
  0.375000  0.000000  0.285714     12.000000
  0.416667  0.000000  0.285714     12.000000
  0.458333  0.000000  0.285714     12.000000
  0.500000  0.000000  0.285714      6.000000
  0.041667  0.041667  0.285714     12.000000
  0.083333  0.041667  0.285714     24.000000
  0.125000  0.041667  0.285714     24.000000
  0.166667  0.041667  0.285714     24.000000
  0.208333  0.041667  0.285714     24.000000
  0.250000  0.041667  0.285714     24.000000
  0.291667  0.041667  0.285714     24.000000
  0.333333  0.041667  0.285714     24.000000
  0.375000  0.041667  0.285714     24.000000
  0.416667  0.041667  0.285714     24.000000
  0.458333  0.041667  0.285714     24.000000
  0.083333  0.083333  0.285714     12.000000
  0.125000  0.083333  0.285714     24.000000
  0.166667  0.083333  0.285714     24.000000
  0.208333  0.083333  0.285714     24.000000
  0.250000  0.083333  0.285714     24.000000
  0.291667  0.083333  0.285714     24.000000
  0.333333  0.083333  0.285714     24.000000
  0.375000  0.083333  0.285714     24.000000
  0.416667  0.083333  0.285714     24.000000
  0.458333  0.083333  0.285714     12.000000
  0.125000  0.125000  0.285714     12.000000
  0.166667  0.125000  0.285714     24.000000
  0.208333  0.125000  0.285714     24.000000
  0.250000  0.125000  0.285714     24.000000
  0.291667  0.125000  0.285714     24.000000
  0.333333  0.125000  0.285714     24.000000
  0.375000  0.125000  0.285714     24.000000
  0.416667  0.125000  0.285714     24.000000
  0.166667  0.166667  0.285714     12.000000
  0.208333  0.166667  0.285714     24.000000
  0.250000  0.166667  0.285714     24.000000
  0.291667  0.166667  0.285714     24.000000
  0.333333  0.166667  0.285714     24.000000
  0.375000  0.166667  0.285714     24.000000
  0.416667  0.166667  0.285714     12.000000
  0.208333  0.208333  0.285714     12.000000
  0.250000  0.208333  0.285714     24.000000
  0.291667  0.208333  0.285714     24.000000
  0.333333  0.208333  0.285714     24.000000
  0.375000  0.208333  0.285714     24.000000
  0.250000  0.250000  0.285714     12.000000
  0.291667  0.250000  0.285714     24.000000
  0.333333  0.250000  0.285714     24.000000
  0.375000  0.250000  0.285714     12.000000
  0.291667  0.291667  0.285714     12.000000
  0.333333  0.291667  0.285714     24.000000
  0.333333  0.333333  0.285714      4.000000
  0.000000  0.000000  0.357143      2.000000
  0.041667  0.000000  0.357143     12.000000
  0.083333  0.000000  0.357143     12.000000
  0.125000  0.000000  0.357143     12.000000
  0.166667  0.000000  0.357143     12.000000
  0.208333 -0.000000  0.357143     12.000000
  0.250000  0.000000  0.357143     12.000000
  0.291667  0.000000  0.357143     12.000000
  0.333333  0.000000  0.357143     12.000000
  0.375000  0.000000  0.357143     12.000000
  0.416667  0.000000  0.357143     12.000000
  0.458333  0.000000  0.357143     12.000000
  0.500000  0.000000  0.357143      6.000000
  0.041667  0.041667  0.357143     12.000000
  0.083333  0.041667  0.357143     24.000000
  0.125000  0.041667  0.357143     24.000000
  0.166667  0.041667  0.357143     24.000000
  0.208333  0.041667  0.357143     24.000000
  0.250000  0.041667  0.357143     24.000000
  0.291667  0.041667  0.357143     24.000000
  0.333333  0.041667  0.357143     24.000000
  0.375000  0.041667  0.357143     24.000000
  0.416667  0.041667  0.357143     24.000000
  0.458333  0.041667  0.357143     24.000000
  0.083333  0.083333  0.357143     12.000000
  0.125000  0.083333  0.357143     24.000000
  0.166667  0.083333  0.357143     24.000000
  0.208333  0.083333  0.357143     24.000000
  0.250000  0.083333  0.357143     24.000000
  0.291667  0.083333  0.357143     24.000000
  0.333333  0.083333  0.357143     24.000000
  0.375000  0.083333  0.357143     24.000000
  0.416667  0.083333  0.357143     24.000000
  0.458333  0.083333  0.357143     12.000000
  0.125000  0.125000  0.357143     12.000000
  0.166667  0.125000  0.357143     24.000000
  0.208333  0.125000  0.357143     24.000000
  0.250000  0.125000  0.357143     24.000000
  0.291667  0.125000  0.357143     24.000000
  0.333333  0.125000  0.357143     24.000000
  0.375000  0.125000  0.357143     24.000000
  0.416667  0.125000  0.357143     24.000000
  0.166667  0.166667  0.357143     12.000000
  0.208333  0.166667  0.357143     24.000000
  0.250000  0.166667  0.357143     24.000000
  0.291667  0.166667  0.357143     24.000000
  0.333333  0.166667  0.357143     24.000000
  0.375000  0.166667  0.357143     24.000000
  0.416667  0.166667  0.357143     12.000000
  0.208333  0.208333  0.357143     12.000000
  0.250000  0.208333  0.357143     24.000000
  0.291667  0.208333  0.357143     24.000000
  0.333333  0.208333  0.357143     24.000000
  0.375000  0.208333  0.357143     24.000000
  0.250000  0.250000  0.357143     12.000000
  0.291667  0.250000  0.357143     24.000000
  0.333333  0.250000  0.357143     24.000000
  0.375000  0.250000  0.357143     12.000000
  0.291667  0.291667  0.357143     12.000000
  0.333333  0.291667  0.357143     24.000000
  0.333333  0.333333  0.357143      4.000000
  0.000000  0.000000  0.428571      2.000000
  0.041667  0.000000  0.428571     12.000000
  0.083333  0.000000  0.428571     12.000000
  0.125000  0.000000  0.428571     12.000000
  0.166667  0.000000  0.428571     12.000000
  0.208333 -0.000000  0.428571     12.000000
  0.250000  0.000000  0.428571     12.000000
  0.291667  0.000000  0.428571     12.000000
  0.333333  0.000000  0.428571     12.000000
  0.375000  0.000000  0.428571     12.000000
  0.416667  0.000000  0.428571     12.000000
  0.458333  0.000000  0.428571     12.000000
  0.500000  0.000000  0.428571      6.000000
  0.041667  0.041667  0.428571     12.000000
  0.083333  0.041667  0.428571     24.000000
  0.125000  0.041667  0.428571     24.000000
  0.166667  0.041667  0.428571     24.000000
  0.208333  0.041667  0.428571     24.000000
  0.250000  0.041667  0.428571     24.000000
  0.291667  0.041667  0.428571     24.000000
  0.333333  0.041667  0.428571     24.000000
  0.375000  0.041667  0.428571     24.000000
  0.416667  0.041667  0.428571     24.000000
  0.458333  0.041667  0.428571     24.000000
  0.083333  0.083333  0.428571     12.000000
  0.125000  0.083333  0.428571     24.000000
  0.166667  0.083333  0.428571     24.000000
  0.208333  0.083333  0.428571     24.000000
  0.250000  0.083333  0.428571     24.000000
  0.291667  0.083333  0.428571     24.000000
  0.333333  0.083333  0.428571     24.000000
  0.375000  0.083333  0.428571     24.000000
  0.416667  0.083333  0.428571     24.000000
  0.458333  0.083333  0.428571     12.000000
  0.125000  0.125000  0.428571     12.000000
  0.166667  0.125000  0.428571     24.000000
  0.208333  0.125000  0.428571     24.000000
  0.250000  0.125000  0.428571     24.000000
  0.291667  0.125000  0.428571     24.000000
  0.333333  0.125000  0.428571     24.000000
  0.375000  0.125000  0.428571     24.000000
  0.416667  0.125000  0.428571     24.000000
  0.166667  0.166667  0.428571     12.000000
  0.208333  0.166667  0.428571     24.000000
  0.250000  0.166667  0.428571     24.000000
  0.291667  0.166667  0.428571     24.000000
  0.333333  0.166667  0.428571     24.000000
  0.375000  0.166667  0.428571     24.000000
  0.416667  0.166667  0.428571     12.000000
  0.208333  0.208333  0.428571     12.000000
  0.250000  0.208333  0.428571     24.000000
  0.291667  0.208333  0.428571     24.000000
  0.333333  0.208333  0.428571     24.000000
  0.375000  0.208333  0.428571     24.000000
  0.250000  0.250000  0.428571     12.000000
  0.291667  0.250000  0.428571     24.000000
  0.333333  0.250000  0.428571     24.000000
  0.375000  0.250000  0.428571     12.000000
  0.291667  0.291667  0.428571     12.000000
  0.333333  0.291667  0.428571     24.000000
  0.333333  0.333333  0.428571      4.000000
  0.000000  0.000000  0.500000      1.000000
  0.041667  0.000000  0.500000      6.000000
  0.083333  0.000000  0.500000      6.000000
  0.125000  0.000000  0.500000      6.000000
  0.166667  0.000000  0.500000      6.000000
  0.208333 -0.000000  0.500000      6.000000
  0.250000  0.000000  0.500000      6.000000
  0.291667  0.000000  0.500000      6.000000
  0.333333  0.000000  0.500000      6.000000
  0.375000  0.000000  0.500000      6.000000
  0.416667  0.000000  0.500000      6.000000
  0.458333  0.000000  0.500000      6.000000
  0.500000  0.000000  0.500000      3.000000
  0.041667  0.041667  0.500000      6.000000
  0.083333  0.041667  0.500000     12.000000
  0.125000  0.041667  0.500000     12.000000
  0.166667  0.041667  0.500000     12.000000
  0.208333  0.041667  0.500000     12.000000
  0.250000  0.041667  0.500000     12.000000
  0.291667  0.041667  0.500000     12.000000
  0.333333  0.041667  0.500000     12.000000
  0.375000  0.041667  0.500000     12.000000
  0.416667  0.041667  0.500000     12.000000
  0.458333  0.041667  0.500000     12.000000
  0.083333  0.083333  0.500000      6.000000
  0.125000  0.083333  0.500000     12.000000
  0.166667  0.083333  0.500000     12.000000
  0.208333  0.083333  0.500000     12.000000
  0.250000  0.083333  0.500000     12.000000
  0.291667  0.083333  0.500000     12.000000
  0.333333  0.083333  0.500000     12.000000
  0.375000  0.083333  0.500000     12.000000
  0.416667  0.083333  0.500000     12.000000
  0.458333  0.083333  0.500000      6.000000
  0.125000  0.125000  0.500000      6.000000
  0.166667  0.125000  0.500000     12.000000
  0.208333  0.125000  0.500000     12.000000
  0.250000  0.125000  0.500000     12.000000
  0.291667  0.125000  0.500000     12.000000
  0.333333  0.125000  0.500000     12.000000
  0.375000  0.125000  0.500000     12.000000
  0.416667  0.125000  0.500000     12.000000
  0.166667  0.166667  0.500000      6.000000
  0.208333  0.166667  0.500000     12.000000
  0.250000  0.166667  0.500000     12.000000
  0.291667  0.166667  0.500000     12.000000
  0.333333  0.166667  0.500000     12.000000
  0.375000  0.166667  0.500000     12.000000
  0.416667  0.166667  0.500000      6.000000
  0.208333  0.208333  0.500000      6.000000
  0.250000  0.208333  0.500000     12.000000
  0.291667  0.208333  0.500000     12.000000
  0.333333  0.208333  0.500000     12.000000
  0.375000  0.208333  0.500000     12.000000
  0.250000  0.250000  0.500000      6.000000
  0.291667  0.250000  0.500000     12.000000
  0.333333  0.250000  0.500000     12.000000
  0.375000  0.250000  0.500000      6.000000
  0.291667  0.291667  0.500000      6.000000
  0.333333  0.291667  0.500000     12.000000
  0.333333  0.333333  0.500000      2.000000
 
 Following cartesian coordinates:
            Coordinates               Weight
  0.000000  0.000000  0.000000      1.000000
  0.013033  0.007525  0.000000      6.000000
  0.026067  0.015050  0.000000      6.000000
  0.039100  0.022574  0.000000      6.000000
  0.052133  0.030099  0.000000      6.000000
  0.065167  0.037624  0.000000      6.000000
  0.078200  0.045149  0.000000      6.000000
  0.091234  0.052674  0.000000      6.000000
  0.104267  0.060199  0.000000      6.000000
  0.117300  0.067723  0.000000      6.000000
  0.130334  0.075248  0.000000      6.000000
  0.143367  0.082773  0.000000      6.000000
  0.156400  0.090298  0.000000      3.000000
  0.013033  0.022574  0.000000      6.000000
  0.026067  0.030099  0.000000     12.000000
  0.039100  0.037624  0.000000     12.000000
  0.052133  0.045149  0.000000     12.000000
  0.065167  0.052674  0.000000     12.000000
  0.078200  0.060199  0.000000     12.000000
  0.091234  0.067723  0.000000     12.000000
  0.104267  0.075248  0.000000     12.000000
  0.117300  0.082773  0.000000     12.000000
  0.130334  0.090298  0.000000     12.000000
  0.143367  0.097823  0.000000     12.000000
  0.026067  0.045149  0.000000      6.000000
  0.039100  0.052674  0.000000     12.000000
  0.052133  0.060199  0.000000     12.000000
  0.065167  0.067723  0.000000     12.000000
  0.078200  0.075248  0.000000     12.000000
  0.091234  0.082773  0.000000     12.000000
  0.104267  0.090298  0.000000     12.000000
  0.117300  0.097823  0.000000     12.000000
  0.130334  0.105347  0.000000     12.000000
  0.143367  0.112872  0.000000      6.000000
  0.039100  0.067723  0.000000      6.000000
  0.052133  0.075248  0.000000     12.000000
  0.065167  0.082773  0.000000     12.000000
  0.078200  0.090298  0.000000     12.000000
  0.091234  0.097823  0.000000     12.000000
  0.104267  0.105347  0.000000     12.000000
  0.117300  0.112872  0.000000     12.000000
  0.130334  0.120397  0.000000     12.000000
  0.052133  0.090298  0.000000      6.000000
  0.065167  0.097823  0.000000     12.000000
  0.078200  0.105347  0.000000     12.000000
  0.091234  0.112872  0.000000     12.000000
  0.104267  0.120397  0.000000     12.000000
  0.117300  0.127922  0.000000     12.000000
  0.130334  0.135447  0.000000      6.000000
  0.065167  0.112872  0.000000      6.000000
  0.078200  0.120397  0.000000     12.000000
  0.091234  0.127922  0.000000     12.000000
  0.104267  0.135447  0.000000     12.000000
  0.117300  0.142972  0.000000     12.000000
  0.078200  0.135447  0.000000      6.000000
  0.091234  0.142972  0.000000     12.000000
  0.104267  0.150496  0.000000     12.000000
  0.117300  0.158021  0.000000      6.000000
  0.091234  0.158021  0.000000      6.000000
  0.104267  0.165546  0.000000     12.000000
  0.104267  0.180596  0.000000      2.000000
  0.000000  0.000000  0.013723      2.000000
  0.013033  0.007525  0.013723     12.000000
  0.026067  0.015050  0.013723     12.000000
  0.039100  0.022574  0.013723     12.000000
  0.052133  0.030099  0.013723     12.000000
  0.065167  0.037624  0.013723     12.000000
  0.078200  0.045149  0.013723     12.000000
  0.091234  0.052674  0.013723     12.000000
  0.104267  0.060199  0.013723     12.000000
  0.117300  0.067723  0.013723     12.000000
  0.130334  0.075248  0.013723     12.000000
  0.143367  0.082773  0.013723     12.000000
  0.156400  0.090298  0.013723      6.000000
  0.013033  0.022574  0.013723     12.000000
  0.026067  0.030099  0.013723     24.000000
  0.039100  0.037624  0.013723     24.000000
  0.052133  0.045149  0.013723     24.000000
  0.065167  0.052674  0.013723     24.000000
  0.078200  0.060199  0.013723     24.000000
  0.091234  0.067723  0.013723     24.000000
  0.104267  0.075248  0.013723     24.000000
  0.117300  0.082773  0.013723     24.000000
  0.130334  0.090298  0.013723     24.000000
  0.143367  0.097823  0.013723     24.000000
  0.026067  0.045149  0.013723     12.000000
  0.039100  0.052674  0.013723     24.000000
  0.052133  0.060199  0.013723     24.000000
  0.065167  0.067723  0.013723     24.000000
  0.078200  0.075248  0.013723     24.000000
  0.091234  0.082773  0.013723     24.000000
  0.104267  0.090298  0.013723     24.000000
  0.117300  0.097823  0.013723     24.000000
  0.130334  0.105347  0.013723     24.000000
  0.143367  0.112872  0.013723     12.000000
  0.039100  0.067723  0.013723     12.000000
  0.052133  0.075248  0.013723     24.000000
  0.065167  0.082773  0.013723     24.000000
  0.078200  0.090298  0.013723     24.000000
  0.091234  0.097823  0.013723     24.000000
  0.104267  0.105347  0.013723     24.000000
  0.117300  0.112872  0.013723     24.000000
  0.130334  0.120397  0.013723     24.000000
  0.052133  0.090298  0.013723     12.000000
  0.065167  0.097823  0.013723     24.000000
  0.078200  0.105347  0.013723     24.000000
  0.091234  0.112872  0.013723     24.000000
  0.104267  0.120397  0.013723     24.000000
  0.117300  0.127922  0.013723     24.000000
  0.130334  0.135447  0.013723     12.000000
  0.065167  0.112872  0.013723     12.000000
  0.078200  0.120397  0.013723     24.000000
  0.091234  0.127922  0.013723     24.000000
  0.104267  0.135447  0.013723     24.000000
  0.117300  0.142972  0.013723     24.000000
  0.078200  0.135447  0.013723     12.000000
  0.091234  0.142972  0.013723     24.000000
  0.104267  0.150496  0.013723     24.000000
  0.117300  0.158021  0.013723     12.000000
  0.091234  0.158021  0.013723     12.000000
  0.104267  0.165546  0.013723     24.000000
  0.104267  0.180596  0.013723      4.000000
  0.000000  0.000000  0.027445      2.000000
  0.013033  0.007525  0.027445     12.000000
  0.026067  0.015050  0.027445     12.000000
  0.039100  0.022574  0.027445     12.000000
  0.052133  0.030099  0.027445     12.000000
  0.065167  0.037624  0.027445     12.000000
  0.078200  0.045149  0.027445     12.000000
  0.091234  0.052674  0.027445     12.000000
  0.104267  0.060199  0.027445     12.000000
  0.117300  0.067723  0.027445     12.000000
  0.130334  0.075248  0.027445     12.000000
  0.143367  0.082773  0.027445     12.000000
  0.156400  0.090298  0.027445      6.000000
  0.013033  0.022574  0.027445     12.000000
  0.026067  0.030099  0.027445     24.000000
  0.039100  0.037624  0.027445     24.000000
  0.052133  0.045149  0.027445     24.000000
  0.065167  0.052674  0.027445     24.000000
  0.078200  0.060199  0.027445     24.000000
  0.091234  0.067723  0.027445     24.000000
  0.104267  0.075248  0.027445     24.000000
  0.117300  0.082773  0.027445     24.000000
  0.130334  0.090298  0.027445     24.000000
  0.143367  0.097823  0.027445     24.000000
  0.026067  0.045149  0.027445     12.000000
  0.039100  0.052674  0.027445     24.000000
  0.052133  0.060199  0.027445     24.000000
  0.065167  0.067723  0.027445     24.000000
  0.078200  0.075248  0.027445     24.000000
  0.091234  0.082773  0.027445     24.000000
  0.104267  0.090298  0.027445     24.000000
  0.117300  0.097823  0.027445     24.000000
  0.130334  0.105347  0.027445     24.000000
  0.143367  0.112872  0.027445     12.000000
  0.039100  0.067723  0.027445     12.000000
  0.052133  0.075248  0.027445     24.000000
  0.065167  0.082773  0.027445     24.000000
  0.078200  0.090298  0.027445     24.000000
  0.091234  0.097823  0.027445     24.000000
  0.104267  0.105347  0.027445     24.000000
  0.117300  0.112872  0.027445     24.000000
  0.130334  0.120397  0.027445     24.000000
  0.052133  0.090298  0.027445     12.000000
  0.065167  0.097823  0.027445     24.000000
  0.078200  0.105347  0.027445     24.000000
  0.091234  0.112872  0.027445     24.000000
  0.104267  0.120397  0.027445     24.000000
  0.117300  0.127922  0.027445     24.000000
  0.130334  0.135447  0.027445     12.000000
  0.065167  0.112872  0.027445     12.000000
  0.078200  0.120397  0.027445     24.000000
  0.091234  0.127922  0.027445     24.000000
  0.104267  0.135447  0.027445     24.000000
  0.117300  0.142972  0.027445     24.000000
  0.078200  0.135447  0.027445     12.000000
  0.091234  0.142972  0.027445     24.000000
  0.104267  0.150496  0.027445     24.000000
  0.117300  0.158021  0.027445     12.000000
  0.091234  0.158021  0.027445     12.000000
  0.104267  0.165546  0.027445     24.000000
  0.104267  0.180596  0.027445      4.000000
  0.000000  0.000000  0.041168      2.000000
  0.013033  0.007525  0.041168     12.000000
  0.026067  0.015050  0.041168     12.000000
  0.039100  0.022574  0.041168     12.000000
  0.052133  0.030099  0.041168     12.000000
  0.065167  0.037624  0.041168     12.000000
  0.078200  0.045149  0.041168     12.000000
  0.091234  0.052674  0.041168     12.000000
  0.104267  0.060199  0.041168     12.000000
  0.117300  0.067723  0.041168     12.000000
  0.130334  0.075248  0.041168     12.000000
  0.143367  0.082773  0.041168     12.000000
  0.156400  0.090298  0.041168      6.000000
  0.013033  0.022574  0.041168     12.000000
  0.026067  0.030099  0.041168     24.000000
  0.039100  0.037624  0.041168     24.000000
  0.052133  0.045149  0.041168     24.000000
  0.065167  0.052674  0.041168     24.000000
  0.078200  0.060199  0.041168     24.000000
  0.091234  0.067723  0.041168     24.000000
  0.104267  0.075248  0.041168     24.000000
  0.117300  0.082773  0.041168     24.000000
  0.130334  0.090298  0.041168     24.000000
  0.143367  0.097823  0.041168     24.000000
  0.026067  0.045149  0.041168     12.000000
  0.039100  0.052674  0.041168     24.000000
  0.052133  0.060199  0.041168     24.000000
  0.065167  0.067723  0.041168     24.000000
  0.078200  0.075248  0.041168     24.000000
  0.091234  0.082773  0.041168     24.000000
  0.104267  0.090298  0.041168     24.000000
  0.117300  0.097823  0.041168     24.000000
  0.130334  0.105347  0.041168     24.000000
  0.143367  0.112872  0.041168     12.000000
  0.039100  0.067723  0.041168     12.000000
  0.052133  0.075248  0.041168     24.000000
  0.065167  0.082773  0.041168     24.000000
  0.078200  0.090298  0.041168     24.000000
  0.091234  0.097823  0.041168     24.000000
  0.104267  0.105347  0.041168     24.000000
  0.117300  0.112872  0.041168     24.000000
  0.130334  0.120397  0.041168     24.000000
  0.052133  0.090298  0.041168     12.000000
  0.065167  0.097823  0.041168     24.000000
  0.078200  0.105347  0.041168     24.000000
  0.091234  0.112872  0.041168     24.000000
  0.104267  0.120397  0.041168     24.000000
  0.117300  0.127922  0.041168     24.000000
  0.130334  0.135447  0.041168     12.000000
  0.065167  0.112872  0.041168     12.000000
  0.078200  0.120397  0.041168     24.000000
  0.091234  0.127922  0.041168     24.000000
  0.104267  0.135447  0.041168     24.000000
  0.117300  0.142972  0.041168     24.000000
  0.078200  0.135447  0.041168     12.000000
  0.091234  0.142972  0.041168     24.000000
  0.104267  0.150496  0.041168     24.000000
  0.117300  0.158021  0.041168     12.000000
  0.091234  0.158021  0.041168     12.000000
  0.104267  0.165546  0.041168     24.000000
  0.104267  0.180596  0.041168      4.000000
  0.000000  0.000000  0.054890      2.000000
  0.013033  0.007525  0.054890     12.000000
  0.026067  0.015050  0.054890     12.000000
  0.039100  0.022574  0.054890     12.000000
  0.052133  0.030099  0.054890     12.000000
  0.065167  0.037624  0.054890     12.000000
  0.078200  0.045149  0.054890     12.000000
  0.091234  0.052674  0.054890     12.000000
  0.104267  0.060199  0.054890     12.000000
  0.117300  0.067723  0.054890     12.000000
  0.130334  0.075248  0.054890     12.000000
  0.143367  0.082773  0.054890     12.000000
  0.156400  0.090298  0.054890      6.000000
  0.013033  0.022574  0.054890     12.000000
  0.026067  0.030099  0.054890     24.000000
  0.039100  0.037624  0.054890     24.000000
  0.052133  0.045149  0.054890     24.000000
  0.065167  0.052674  0.054890     24.000000
  0.078200  0.060199  0.054890     24.000000
  0.091234  0.067723  0.054890     24.000000
  0.104267  0.075248  0.054890     24.000000
  0.117300  0.082773  0.054890     24.000000
  0.130334  0.090298  0.054890     24.000000
  0.143367  0.097823  0.054890     24.000000
  0.026067  0.045149  0.054890     12.000000
  0.039100  0.052674  0.054890     24.000000
  0.052133  0.060199  0.054890     24.000000
  0.065167  0.067723  0.054890     24.000000
  0.078200  0.075248  0.054890     24.000000
  0.091234  0.082773  0.054890     24.000000
  0.104267  0.090298  0.054890     24.000000
  0.117300  0.097823  0.054890     24.000000
  0.130334  0.105347  0.054890     24.000000
  0.143367  0.112872  0.054890     12.000000
  0.039100  0.067723  0.054890     12.000000
  0.052133  0.075248  0.054890     24.000000
  0.065167  0.082773  0.054890     24.000000
  0.078200  0.090298  0.054890     24.000000
  0.091234  0.097823  0.054890     24.000000
  0.104267  0.105347  0.054890     24.000000
  0.117300  0.112872  0.054890     24.000000
  0.130334  0.120397  0.054890     24.000000
  0.052133  0.090298  0.054890     12.000000
  0.065167  0.097823  0.054890     24.000000
  0.078200  0.105347  0.054890     24.000000
  0.091234  0.112872  0.054890     24.000000
  0.104267  0.120397  0.054890     24.000000
  0.117300  0.127922  0.054890     24.000000
  0.130334  0.135447  0.054890     12.000000
  0.065167  0.112872  0.054890     12.000000
  0.078200  0.120397  0.054890     24.000000
  0.091234  0.127922  0.054890     24.000000
  0.104267  0.135447  0.054890     24.000000
  0.117300  0.142972  0.054890     24.000000
  0.078200  0.135447  0.054890     12.000000
  0.091234  0.142972  0.054890     24.000000
  0.104267  0.150496  0.054890     24.000000
  0.117300  0.158021  0.054890     12.000000
  0.091234  0.158021  0.054890     12.000000
  0.104267  0.165546  0.054890     24.000000
  0.104267  0.180596  0.054890      4.000000
  0.000000  0.000000  0.068613      2.000000
  0.013033  0.007525  0.068613     12.000000
  0.026067  0.015050  0.068613     12.000000
  0.039100  0.022574  0.068613     12.000000
  0.052133  0.030099  0.068613     12.000000
  0.065167  0.037624  0.068613     12.000000
  0.078200  0.045149  0.068613     12.000000
  0.091234  0.052674  0.068613     12.000000
  0.104267  0.060199  0.068613     12.000000
  0.117300  0.067723  0.068613     12.000000
  0.130334  0.075248  0.068613     12.000000
  0.143367  0.082773  0.068613     12.000000
  0.156400  0.090298  0.068613      6.000000
  0.013033  0.022574  0.068613     12.000000
  0.026067  0.030099  0.068613     24.000000
  0.039100  0.037624  0.068613     24.000000
  0.052133  0.045149  0.068613     24.000000
  0.065167  0.052674  0.068613     24.000000
  0.078200  0.060199  0.068613     24.000000
  0.091234  0.067723  0.068613     24.000000
  0.104267  0.075248  0.068613     24.000000
  0.117300  0.082773  0.068613     24.000000
  0.130334  0.090298  0.068613     24.000000
  0.143367  0.097823  0.068613     24.000000
  0.026067  0.045149  0.068613     12.000000
  0.039100  0.052674  0.068613     24.000000
  0.052133  0.060199  0.068613     24.000000
  0.065167  0.067723  0.068613     24.000000
  0.078200  0.075248  0.068613     24.000000
  0.091234  0.082773  0.068613     24.000000
  0.104267  0.090298  0.068613     24.000000
  0.117300  0.097823  0.068613     24.000000
  0.130334  0.105347  0.068613     24.000000
  0.143367  0.112872  0.068613     12.000000
  0.039100  0.067723  0.068613     12.000000
  0.052133  0.075248  0.068613     24.000000
  0.065167  0.082773  0.068613     24.000000
  0.078200  0.090298  0.068613     24.000000
  0.091234  0.097823  0.068613     24.000000
  0.104267  0.105347  0.068613     24.000000
  0.117300  0.112872  0.068613     24.000000
  0.130334  0.120397  0.068613     24.000000
  0.052133  0.090298  0.068613     12.000000
  0.065167  0.097823  0.068613     24.000000
  0.078200  0.105347  0.068613     24.000000
  0.091234  0.112872  0.068613     24.000000
  0.104267  0.120397  0.068613     24.000000
  0.117300  0.127922  0.068613     24.000000
  0.130334  0.135447  0.068613     12.000000
  0.065167  0.112872  0.068613     12.000000
  0.078200  0.120397  0.068613     24.000000
  0.091234  0.127922  0.068613     24.000000
  0.104267  0.135447  0.068613     24.000000
  0.117300  0.142972  0.068613     24.000000
  0.078200  0.135447  0.068613     12.000000
  0.091234  0.142972  0.068613     24.000000
  0.104267  0.150496  0.068613     24.000000
  0.117300  0.158021  0.068613     12.000000
  0.091234  0.158021  0.068613     12.000000
  0.104267  0.165546  0.068613     24.000000
  0.104267  0.180596  0.068613      4.000000
  0.000000  0.000000  0.082336      2.000000
  0.013033  0.007525  0.082336     12.000000
  0.026067  0.015050  0.082336     12.000000
  0.039100  0.022574  0.082336     12.000000
  0.052133  0.030099  0.082336     12.000000
  0.065167  0.037624  0.082336     12.000000
  0.078200  0.045149  0.082336     12.000000
  0.091234  0.052674  0.082336     12.000000
  0.104267  0.060199  0.082336     12.000000
  0.117300  0.067723  0.082336     12.000000
  0.130334  0.075248  0.082336     12.000000
  0.143367  0.082773  0.082336     12.000000
  0.156400  0.090298  0.082336      6.000000
  0.013033  0.022574  0.082336     12.000000
  0.026067  0.030099  0.082336     24.000000
  0.039100  0.037624  0.082336     24.000000
  0.052133  0.045149  0.082336     24.000000
  0.065167  0.052674  0.082336     24.000000
  0.078200  0.060199  0.082336     24.000000
  0.091234  0.067723  0.082336     24.000000
  0.104267  0.075248  0.082336     24.000000
  0.117300  0.082773  0.082336     24.000000
  0.130334  0.090298  0.082336     24.000000
  0.143367  0.097823  0.082336     24.000000
  0.026067  0.045149  0.082336     12.000000
  0.039100  0.052674  0.082336     24.000000
  0.052133  0.060199  0.082336     24.000000
  0.065167  0.067723  0.082336     24.000000
  0.078200  0.075248  0.082336     24.000000
  0.091234  0.082773  0.082336     24.000000
  0.104267  0.090298  0.082336     24.000000
  0.117300  0.097823  0.082336     24.000000
  0.130334  0.105347  0.082336     24.000000
  0.143367  0.112872  0.082336     12.000000
  0.039100  0.067723  0.082336     12.000000
  0.052133  0.075248  0.082336     24.000000
  0.065167  0.082773  0.082336     24.000000
  0.078200  0.090298  0.082336     24.000000
  0.091234  0.097823  0.082336     24.000000
  0.104267  0.105347  0.082336     24.000000
  0.117300  0.112872  0.082336     24.000000
  0.130334  0.120397  0.082336     24.000000
  0.052133  0.090298  0.082336     12.000000
  0.065167  0.097823  0.082336     24.000000
  0.078200  0.105347  0.082336     24.000000
  0.091234  0.112872  0.082336     24.000000
  0.104267  0.120397  0.082336     24.000000
  0.117300  0.127922  0.082336     24.000000
  0.130334  0.135447  0.082336     12.000000
  0.065167  0.112872  0.082336     12.000000
  0.078200  0.120397  0.082336     24.000000
  0.091234  0.127922  0.082336     24.000000
  0.104267  0.135447  0.082336     24.000000
  0.117300  0.142972  0.082336     24.000000
  0.078200  0.135447  0.082336     12.000000
  0.091234  0.142972  0.082336     24.000000
  0.104267  0.150496  0.082336     24.000000
  0.117300  0.158021  0.082336     12.000000
  0.091234  0.158021  0.082336     12.000000
  0.104267  0.165546  0.082336     24.000000
  0.104267  0.180596  0.082336      4.000000
  0.000000  0.000000  0.096058      1.000000
  0.013033  0.007525  0.096058      6.000000
  0.026067  0.015050  0.096058      6.000000
  0.039100  0.022574  0.096058      6.000000
  0.052133  0.030099  0.096058      6.000000
  0.065167  0.037624  0.096058      6.000000
  0.078200  0.045149  0.096058      6.000000
  0.091234  0.052674  0.096058      6.000000
  0.104267  0.060199  0.096058      6.000000
  0.117300  0.067723  0.096058      6.000000
  0.130334  0.075248  0.096058      6.000000
  0.143367  0.082773  0.096058      6.000000
  0.156400  0.090298  0.096058      3.000000
  0.013033  0.022574  0.096058      6.000000
  0.026067  0.030099  0.096058     12.000000
  0.039100  0.037624  0.096058     12.000000
  0.052133  0.045149  0.096058     12.000000
  0.065167  0.052674  0.096058     12.000000
  0.078200  0.060199  0.096058     12.000000
  0.091234  0.067723  0.096058     12.000000
  0.104267  0.075248  0.096058     12.000000
  0.117300  0.082773  0.096058     12.000000
  0.130334  0.090298  0.096058     12.000000
  0.143367  0.097823  0.096058     12.000000
  0.026067  0.045149  0.096058      6.000000
  0.039100  0.052674  0.096058     12.000000
  0.052133  0.060199  0.096058     12.000000
  0.065167  0.067723  0.096058     12.000000
  0.078200  0.075248  0.096058     12.000000
  0.091234  0.082773  0.096058     12.000000
  0.104267  0.090298  0.096058     12.000000
  0.117300  0.097823  0.096058     12.000000
  0.130334  0.105347  0.096058     12.000000
  0.143367  0.112872  0.096058      6.000000
  0.039100  0.067723  0.096058      6.000000
  0.052133  0.075248  0.096058     12.000000
  0.065167  0.082773  0.096058     12.000000
  0.078200  0.090298  0.096058     12.000000
  0.091234  0.097823  0.096058     12.000000
  0.104267  0.105347  0.096058     12.000000
  0.117300  0.112872  0.096058     12.000000
  0.130334  0.120397  0.096058     12.000000
  0.052133  0.090298  0.096058      6.000000
  0.065167  0.097823  0.096058     12.000000
  0.078200  0.105347  0.096058     12.000000
  0.091234  0.112872  0.096058     12.000000
  0.104267  0.120397  0.096058     12.000000
  0.117300  0.127922  0.096058     12.000000
  0.130334  0.135447  0.096058      6.000000
  0.065167  0.112872  0.096058      6.000000
  0.078200  0.120397  0.096058     12.000000
  0.091234  0.127922  0.096058     12.000000
  0.104267  0.135447  0.096058     12.000000
  0.117300  0.142972  0.096058     12.000000
  0.078200  0.135447  0.096058      6.000000
  0.091234  0.142972  0.096058     12.000000
  0.104267  0.150496  0.096058     12.000000
  0.117300  0.158021  0.096058      6.000000
  0.091234  0.158021  0.096058      6.000000
  0.104267  0.165546  0.096058     12.000000
  0.104267  0.180596  0.096058      2.000000
 
 -----------------------------------------------------------------------------
|                                                                             |
|           W    W    AA    RRRRR   N    N  II  N    N   GGGG   !!!           |
|           W    W   A  A   R    R  NN   N  II  NN   N  G    G  !!!           |
|           W    W  A    A  R    R  N N  N  II  N N  N  G       !!!           |
|           W WW W  AAAAAA  RRRRR   N  N N  II  N  N N  G  GGG   !            |
|           WW  WW  A    A  R   R   N   NN  II  N   NN  G    G                |
|           W    W  A    A  R    R  N    N  II  N    N   GGGG   !!!           |
|                                                                             |
|     The number of bands has been changed from the values supplied in        |
|     the INCAR file. This is a result of running the parallel version.       |
|     The orbitals not found in the WAVECAR file will be initialized with     |
|     random numbers, which is usually adequate. For correlated               |
|     calculations, however, you should redo the groundstate calculation.     |
|     I found NBANDS = 34. Now, NBANDS = 64.                                  |
|                                                                             |
 -----------------------------------------------------------------------------



--------------------------------------------------------------------------------------------------------




 Dimension of arrays:
   k-points           NKPTS =    488   k-points in BZ     NKDIM =    488   number of bands    NBANDS=     64
   number of dos      NEDOS =   4002   number of ions     NIONS =      4
   non local maximal  LDIM  =      6   non local SUM 2l+1 LMDIM =     18
   total plane-waves  NPLWV =   7168
   max r-space proj   IRMAX =      1   max aug-charges    IRDMAX=   6095
   dimension x,y,z NGX =    16 NGY =   16 NGZ =   28
   dimension x,y,z NGXF=    32 NGYF=   32 NGZF=   56
   support grid    NGXF=    32 NGYF=   32 NGZF=   56
   ions per type =               2   2
   NGX,Y,Z   is equivalent  to a cutoff of   8.32,  8.32,  8.94 a.u.
   NGXF,Y,Z  is equivalent  to a cutoff of  16.64, 16.64, 17.89 a.u.

 SYSTEM =  unknown system                          
 POSCAR =  Ga2 N2                                  

 Startparameter for this run:
   NWRITE =      2    write-flag & timer
   PREC   = normal    normal or accurate (medium, high low for compatibility)
   ISTART =      0    job   : 0-new  1-cont  2-samecut
   ICHARG =      2    charge: 1-file 2-atom 10-const
   ISPIN  =      1    spin polarized calculation?
   LNONCOLLINEAR =      F non collinear calculations
   LSORBIT =      F    spin-orbit coupling
   INIWAV =      1    electr: 0-lowe 1-rand  2-diag
   LASPH  =      T    aspherical Exc in radial PAW
 Electronic Relaxation 1
   ENCUT  =  400.0 eV  29.40 Ry    5.42 a.u.   5.21  5.21  8.49*2*pi/ulx,y,z
   ENINI  =  400.0     initial cutoff
   ENAUG  =  627.1 eV  augmentation charge cutoff
   NELM   =    100;   NELMIN=  2; NELMDL= -5     # of ELM steps 
   EDIFF  = 0.1E-04   stopping-criterion for ELM
   LREAL  =      F    real-space projection
   NLSPLINE    = F    spline interpolate recip. space projectors
   LCOMPAT=      F    compatible to vasp.4.4
   GGA_COMPAT  = T    GGA compatible to vasp.4.4-vasp.4.6
   LMAXPAW     = -100 max onsite density
   LMAXMIX     =    2 max onsite mixed and CHGCAR
   VOSKOWN=      0    Vosko Wilk Nusair interpolation
   ROPT   =    0.00000   0.00000
 Ionic relaxation
   EDIFFG = 0.1E-03   stopping-criterion for IOM
   NSW    =      1    number of steps for IOM
   NBLOCK =      1;   KBLOCK =      1    inner block; outer block 
   IBRION =      2    ionic relax: 0-MD 1-quasi-New 2-CG
   NFREE  =      1    steps in history (QN), initial steepest desc. (CG)
   ISIF   =      0    stress and relaxation
   IWAVPR =     11    prediction:  0-non 1-charg 2-wave 3-comb
   ISYM   =      2    0-nonsym 1-usesym 2-fastsym
   LCORR  =      T    Harris-Foulkes like correction to forces

   POTIM  = 0.5000    time-step for ionic-motion
   TEIN   =    0.0    initial temperature
   TEBEG  =    0.0;   TEEND  =   0.0 temperature during run
   SMASS  =  -3.00    Nose mass-parameter (am)
   estimated Nose-frequenzy (Omega)   =  0.10E-29 period in steps = 0.13E+47 mass=  -0.234E-27a.u.
   SCALEE = 1.0000    scale energy and forces
   NPACO  =    256;   APACO  = 10.0  distance and # of slots for P.C.
   PSTRESS=    0.0 pullay stress

  Mass of Ions in am
   POMASS =  69.72 14.00
  Ionic Valenz
   ZVAL   =  13.00  5.00
  Atomic Wigner-Seitz radii
   RWIGS  =  -1.00 -1.00
  virtual crystal weights 
   VCA    =   1.00  1.00
   NELECT =      36.0000    total number of electrons
   NUPDOWN=      -1.0000    fix difference up-down

 DOS related values:
   EMIN   = -20.01;   EMAX   = 20.00  energy-range for DOS
   EFERMI =   0.00
   ISMEAR =     0;   SIGMA  =   0.10  broadening in eV -4-tet -1-fermi 0-gaus

 Electronic relaxation 2 (details)
   IALGO  =     38    algorithm
   LDIAG  =      T    sub-space diagonalisation (order eigenvalues)
   LSUBROT=      F    optimize rotation matrix (better conditioning)
   TURBO    =      0    0=normal 1=particle mesh
   IRESTART =      0    0=no restart 2=restart with 2 vectors
   NREBOOT  =      0    no. of reboots
   NMIN     =      0    reboot dimension
   EREF     =   0.00    reference energy to select bands
   IMIX   =      4    mixing-type and parameters
     AMIX     =   0.40;   BMIX     =  1.00
     AMIX_MAG =   1.60;   BMIX_MAG =  1.00
     AMIN     =   0.10
     WC   =   100.;   INIMIX=   1;  MIXPRE=   1;  MAXMIX= -45

 Intra band minimization:
   WEIMIN = 0.0010     energy-eigenvalue tresh-hold
   EBREAK =  0.39E-07  absolut break condition
   DEPER  =   0.30     relativ break condition  

   TIME   =   0.40     timestep for ELM

  volume/ion in A,a.u.               =      11.52        77.73
  Fermi-wavevector in a.u.,A,eV,Ry     =   1.507877  2.849474 30.935458  2.273692
  Thomas-Fermi vector in A             =   2.618405
 
 Write flags
   LWAVE        =      F    write WAVECAR
   LDOWNSAMPLE  =      F    k-point downsampling of WAVECAR
   LCHARG       =      F    write CHGCAR
   LVTOT        =      T    write LOCPOT, total local potential
   LVHAR        =      F    write LOCPOT, Hartree potential only
   LELF         =      F    write electronic localiz. function (ELF)
   LORBIT       =     11    0 simple, 1 ext, 2 COOP (PROOUT), +10 PAW based schemes


 Dipole corrections
   LMONO  =      F    monopole corrections only (constant potential shift)
   LDIPOL =      F    correct potential (dipole corrections)
   IDIPOL =      0    1-x, 2-y, 3-z, 4-all directions 
   EPSILON=  1.0000000 bulk dielectric constant

 Exchange correlation treatment:
   GGA     =    --    GGA type
   LEXCH   =     8    internal setting for exchange type
   LIBXC   =     F    Libxc                    
   VOSKOWN =     0    Vosko Wilk Nusair interpolation
   LHFCALC =     F    Hartree Fock is set to
   LHFONE  =     F    Hartree Fock one center treatment
   AEXX    =    0.0000 exact exchange contribution

 Linear response parameters
   LEPSILON=     F    determine dielectric tensor
   LRPA    =     F    only Hartree local field effects (RPA)
   LNABLA  =     F    use nabla operator in PAW spheres
   LVEL    =     F    velocity operator in full k-point grid
   CSHIFT  =0.1000    complex shift for real part using Kramers Kronig
   OMEGAMAX=  -1.0    maximum frequency
   DEG_THRESHOLD= 0.2000000E-02 threshold for treating states as degnerate
   RTIME   =   -0.100 relaxation time in fs
  (WPLASMAI=    0.000 imaginary part of plasma frequency in eV, 0.658/RTIME)
   DFIELD  = 0.0000000 0.0000000 0.0000000 field for delta impulse in time
 
  Optional k-point grid parameters
   LKPOINTS_OPT  =     F    use optional k-point grid
   KPOINTS_OPT_MODE=     1    mode for optional k-point grid
 
 Orbital magnetization related:
   ORBITALMAG=     F  switch on orbital magnetization
   LCHIMAG   =     F  perturbation theory with respect to B field
   DQ        =  0.001000  dq finite difference perturbation B field
   LLRAUG    =     F  two centre corrections for induced B field



--------------------------------------------------------------------------------------------------------


 conjugate gradient relaxation of ions
 charge density and potential will be updated during run
 non-spin polarized calculation
 Variant of blocked Davidson
 Davidson routine will perform the subspace rotation
 perform sub-space diagonalisation
    after iterative eigenvector-optimisation
 modified Broyden-mixing scheme, WC =      100.0
 initial mixing is a Kerker type mixing with AMIX =  0.4000 and BMIX =      1.0000
 Hartree-type preconditioning will be used
 using additional bands           46
 reciprocal scheme for non local part
 use partial core corrections
 calculate Harris-corrections to forces 
   (improved forces if not selfconsistent)
 use gradient corrections 
 use of overlap-Matrix (Vanderbilt PP)
 Gauss-broadening in eV      SIGMA  =   0.10


--------------------------------------------------------------------------------------------------------


  energy-cutoff  :      400.00
  volume of cell :       46.07
      direct lattice vectors                 reciprocal lattice vectors
     3.196921834  0.000000000  0.000000000     0.312800892  0.180595679  0.000000000
    -1.598460917  2.768615522  0.000000000     0.000000000  0.361191358  0.000000000
     0.000000000  0.000000000  5.205169397     0.000000000  0.000000000  0.192116706

  length of vectors
     3.196921834  3.196921834  5.205169397     0.361191358  0.361191358  0.192116706


 
 k-points in units of 2pi/SCALE and weight: Num irrep kpoints: 488                  
   0.00000000  0.00000000  0.00000000       0.000
   0.01303337  0.00752482  0.00000000       0.001
   0.02606674  0.01504964  0.00000000       0.001
   0.03910011  0.02257446  0.00000000       0.001
   0.05213348  0.03009928  0.00000000       0.001
   0.06516685  0.03762410  0.00000000       0.001
   0.07820022  0.04514892  0.00000000       0.001
   0.09123359  0.05267374  0.00000000       0.001
   0.10426696  0.06019856  0.00000000       0.001
   0.11730033  0.06772338  0.00000000       0.001
   0.13033370  0.07524820  0.00000000       0.001
   0.14336708  0.08277302  0.00000000       0.001
   0.15640045  0.09029784  0.00000000       0.000
   0.01303337  0.02257446  0.00000000       0.001
   0.02606674  0.03009928  0.00000000       0.001
   0.03910011  0.03762410  0.00000000       0.001
   0.05213348  0.04514892  0.00000000       0.001
   0.06516685  0.05267374  0.00000000       0.001
   0.07820022  0.06019856  0.00000000       0.001
   0.09123359  0.06772338  0.00000000       0.001
   0.10426696  0.07524820  0.00000000       0.001
   0.11730033  0.08277302  0.00000000       0.001
   0.13033370  0.09029784  0.00000000       0.001
   0.14336708  0.09782266  0.00000000       0.001
   0.02606674  0.04514892  0.00000000       0.001
   0.03910011  0.05267374  0.00000000       0.001
   0.05213348  0.06019856  0.00000000       0.001
   0.06516685  0.06772338  0.00000000       0.001
   0.07820022  0.07524820  0.00000000       0.001
   0.09123359  0.08277302  0.00000000       0.001
   0.10426696  0.09029784  0.00000000       0.001
   0.11730033  0.09782266  0.00000000       0.001
   0.13033370  0.10534748  0.00000000       0.001
   0.14336708  0.11287230  0.00000000       0.001
   0.03910011  0.06772338  0.00000000       0.001
   0.05213348  0.07524820  0.00000000       0.001
   0.06516685  0.08277302  0.00000000       0.001
   0.07820022  0.09029784  0.00000000       0.001
   0.09123359  0.09782266  0.00000000       0.001
   0.10426696  0.10534748  0.00000000       0.001
   0.11730033  0.11287230  0.00000000       0.001
   0.13033370  0.12039712  0.00000000       0.001
   0.05213348  0.09029784  0.00000000       0.001
   0.06516685  0.09782266  0.00000000       0.001
   0.07820022  0.10534748  0.00000000       0.001
   0.09123359  0.11287230  0.00000000       0.001
   0.10426696  0.12039712  0.00000000       0.001
   0.11730033  0.12792194  0.00000000       0.001
   0.13033370  0.13544676  0.00000000       0.001
   0.06516685  0.11287230  0.00000000       0.001
   0.07820022  0.12039712  0.00000000       0.001
   0.09123359  0.12792194  0.00000000       0.001
   0.10426696  0.13544676  0.00000000       0.001
   0.11730033  0.14297158  0.00000000       0.001
   0.07820022  0.13544676  0.00000000       0.001
   0.09123359  0.14297158  0.00000000       0.001
   0.10426696  0.15049640  0.00000000       0.001
   0.11730033  0.15802122  0.00000000       0.001
   0.09123359  0.15802122  0.00000000       0.001
   0.10426696  0.16554604  0.00000000       0.001
   0.10426696  0.18059568  0.00000000       0.000
   0.00000000  0.00000000  0.01372262       0.000
   0.01303337  0.00752482  0.01372262       0.001
   0.02606674  0.01504964  0.01372262       0.001
   0.03910011  0.02257446  0.01372262       0.001
   0.05213348  0.03009928  0.01372262       0.001
   0.06516685  0.03762410  0.01372262       0.001
   0.07820022  0.04514892  0.01372262       0.001
   0.09123359  0.05267374  0.01372262       0.001
   0.10426696  0.06019856  0.01372262       0.001
   0.11730033  0.06772338  0.01372262       0.001
   0.13033370  0.07524820  0.01372262       0.001
   0.14336708  0.08277302  0.01372262       0.001
   0.15640045  0.09029784  0.01372262       0.001
   0.01303337  0.02257446  0.01372262       0.001
   0.02606674  0.03009928  0.01372262       0.003
   0.03910011  0.03762410  0.01372262       0.003
   0.05213348  0.04514892  0.01372262       0.003
   0.06516685  0.05267374  0.01372262       0.003
   0.07820022  0.06019856  0.01372262       0.003
   0.09123359  0.06772338  0.01372262       0.003
   0.10426696  0.07524820  0.01372262       0.003
   0.11730033  0.08277302  0.01372262       0.003
   0.13033370  0.09029784  0.01372262       0.003
   0.14336708  0.09782266  0.01372262       0.003
   0.02606674  0.04514892  0.01372262       0.001
   0.03910011  0.05267374  0.01372262       0.003
   0.05213348  0.06019856  0.01372262       0.003
   0.06516685  0.06772338  0.01372262       0.003
   0.07820022  0.07524820  0.01372262       0.003
   0.09123359  0.08277302  0.01372262       0.003
   0.10426696  0.09029784  0.01372262       0.003
   0.11730033  0.09782266  0.01372262       0.003
   0.13033370  0.10534748  0.01372262       0.003
   0.14336708  0.11287230  0.01372262       0.001
   0.03910011  0.06772338  0.01372262       0.001
   0.05213348  0.07524820  0.01372262       0.003
   0.06516685  0.08277302  0.01372262       0.003
   0.07820022  0.09029784  0.01372262       0.003
   0.09123359  0.09782266  0.01372262       0.003
   0.10426696  0.10534748  0.01372262       0.003
   0.11730033  0.11287230  0.01372262       0.003
   0.13033370  0.12039712  0.01372262       0.003
   0.05213348  0.09029784  0.01372262       0.001
   0.06516685  0.09782266  0.01372262       0.003
   0.07820022  0.10534748  0.01372262       0.003
   0.09123359  0.11287230  0.01372262       0.003
   0.10426696  0.12039712  0.01372262       0.003
   0.11730033  0.12792194  0.01372262       0.003
   0.13033370  0.13544676  0.01372262       0.001
   0.06516685  0.11287230  0.01372262       0.001
   0.07820022  0.12039712  0.01372262       0.003
   0.09123359  0.12792194  0.01372262       0.003
   0.10426696  0.13544676  0.01372262       0.003
   0.11730033  0.14297158  0.01372262       0.003
   0.07820022  0.13544676  0.01372262       0.001
   0.09123359  0.14297158  0.01372262       0.003
   0.10426696  0.15049640  0.01372262       0.003
   0.11730033  0.15802122  0.01372262       0.001
   0.09123359  0.15802122  0.01372262       0.001
   0.10426696  0.16554604  0.01372262       0.003
   0.10426696  0.18059568  0.01372262       0.000
   0.00000000  0.00000000  0.02744524       0.000
   0.01303337  0.00752482  0.02744524       0.001
   0.02606674  0.01504964  0.02744524       0.001
   0.03910011  0.02257446  0.02744524       0.001
   0.05213348  0.03009928  0.02744524       0.001
   0.06516685  0.03762410  0.02744524       0.001
   0.07820022  0.04514892  0.02744524       0.001
   0.09123359  0.05267374  0.02744524       0.001
   0.10426696  0.06019856  0.02744524       0.001
   0.11730033  0.06772338  0.02744524       0.001
   0.13033370  0.07524820  0.02744524       0.001
   0.14336708  0.08277302  0.02744524       0.001
   0.15640045  0.09029784  0.02744524       0.001
   0.01303337  0.02257446  0.02744524       0.001
   0.02606674  0.03009928  0.02744524       0.003
   0.03910011  0.03762410  0.02744524       0.003
   0.05213348  0.04514892  0.02744524       0.003
   0.06516685  0.05267374  0.02744524       0.003
   0.07820022  0.06019856  0.02744524       0.003
   0.09123359  0.06772338  0.02744524       0.003
   0.10426696  0.07524820  0.02744524       0.003
   0.11730033  0.08277302  0.02744524       0.003
   0.13033370  0.09029784  0.02744524       0.003
   0.14336708  0.09782266  0.02744524       0.003
   0.02606674  0.04514892  0.02744524       0.001
   0.03910011  0.05267374  0.02744524       0.003
   0.05213348  0.06019856  0.02744524       0.003
   0.06516685  0.06772338  0.02744524       0.003
   0.07820022  0.07524820  0.02744524       0.003
   0.09123359  0.08277302  0.02744524       0.003
   0.10426696  0.09029784  0.02744524       0.003
   0.11730033  0.09782266  0.02744524       0.003
   0.13033370  0.10534748  0.02744524       0.003
   0.14336708  0.11287230  0.02744524       0.001
   0.03910011  0.06772338  0.02744524       0.001
   0.05213348  0.07524820  0.02744524       0.003
   0.06516685  0.08277302  0.02744524       0.003
   0.07820022  0.09029784  0.02744524       0.003
   0.09123359  0.09782266  0.02744524       0.003
   0.10426696  0.10534748  0.02744524       0.003
   0.11730033  0.11287230  0.02744524       0.003
   0.13033370  0.12039712  0.02744524       0.003
[...]
     28      20.0580      0.00000
     29      23.5933      0.00000
     30      23.5933      0.00000
     31      27.3044      0.00000
     32      27.3044      0.00000
     33      29.9207      0.00000
     34      29.9207      0.00000
     35      31.8941      0.00000
     36      31.8941      0.00000
     37      34.0095      0.00000
     38      34.0095      0.00000
     39      35.3921      0.00000
     40      35.3921      0.00000
     41      37.4831      0.00000
     42      37.4831      0.00000
     43      38.9039      0.00000
     44      38.9039      0.00000
     45      40.2188      0.00000
     46      40.2188      0.00000
     47      41.3620      0.00000
     48      41.3620      0.00000
     49      43.7643      0.00000
     50      43.7643      0.00000
     51      45.1485      0.00000
     52      45.1485      0.00000
     53      46.8834      0.00000
     54      46.8834      0.00000
     55      48.2306      0.00000
     56      48.2307      0.00000
     57      49.3646      0.00000
     58      49.3646      0.00000
     59      51.0189      0.00000
     60      51.0189      0.00000
     61      53.0988      0.00000
     62      53.0989      0.00000
     63      54.1798      0.00000
     64      54.1798      0.00000

 k-point   485 :       0.3750    0.2500    0.5000
  band No.  band energies     occupation 
      1      -9.6290      2.00000
      2      -9.6290      2.00000
      3      -8.0791      2.00000
      4      -8.0791      2.00000
      5      -8.0455      2.00000
      6      -8.0455      2.00000
      7      -7.9223      2.00000
      8      -7.9223      2.00000
      9      -7.8820      2.00000
     10      -7.8820      2.00000
     11      -6.2370      2.00000
     12      -6.2370      2.00000
     13      -0.9593      2.00000
     14      -0.9593      2.00000
     15       1.3689      2.00000
     16       1.3689      2.00000
     17       3.7445      2.00000
     18       3.7445      2.00000
     19      11.2279      0.00000
     20      11.2280      0.00000
     21      12.9263      0.00000
     22      12.9263      0.00000
     23      14.1336      0.00000
     24      14.1336      0.00000
     25      18.3812      0.00000
     26      18.3812      0.00000
     27      20.0160      0.00000
     28      20.0160      0.00000
     29      23.5148      0.00000
     30      23.5148      0.00000
     31      27.3168      0.00000
     32      27.3168      0.00000
     33      29.9759      0.00000
     34      29.9759      0.00000
     35      31.9788      0.00000
     36      31.9788      0.00000
     37      33.9469      0.00000
     38      33.9469      0.00000
     39      35.5283      0.00000
     40      35.5283      0.00000
     41      37.3404      0.00000
     42      37.3404      0.00000
     43      38.9413      0.00000
     44      38.9413      0.00000
     45      40.5937      0.00000
     46      40.5937      0.00000
     47      41.6706      0.00000
     48      41.6706      0.00000
     49      43.0717      0.00000
     50      43.0717      0.00000
     51      45.0202      0.00000
     52      45.0203      0.00000
     53      47.2383      0.00000
     54      47.2383      0.00000
     55      48.0657      0.00000
     56      48.0657      0.00000
     57      49.2666      0.00000
     58      49.2666      0.00000
     59      51.3574      0.00000
     60      51.3574      0.00000
     61      52.9966      0.00000
     62      52.9967      0.00000
     63      53.8758      0.00000
     64      53.8758      0.00000

 k-point   486 :       0.2917    0.2917    0.5000
  band No.  band energies     occupation 
      1      -9.6306      2.00000
      2      -9.6306      2.00000
      3      -8.0755      2.00000
      4      -8.0755      2.00000
      5      -8.0465      2.00000
      6      -8.0465      2.00000
      7      -7.9315      2.00000
      8      -7.9315      2.00000
      9      -7.8789      2.00000
     10      -7.8789      2.00000
     11      -6.2609      2.00000
     12      -6.2609      2.00000
     13      -0.8819      2.00000
     14      -0.8819      2.00000
     15       1.3276      2.00000
     16       1.3276      2.00000
     17       3.7352      2.00000
     18       3.7352      2.00000
     19      11.3331      0.00000
     20      11.3331      0.00000
     21      12.8516      0.00000
     22      12.8516      0.00000
     23      14.1584      0.00000
     24      14.1584      0.00000
     25      18.3686      0.00000
     26      18.3686      0.00000
     27      19.9408      0.00000
     28      19.9408      0.00000
     29      23.4902      0.00000
     30      23.4902      0.00000
     31      27.3978      0.00000
     32      27.3978      0.00000
     33      29.9676      0.00000
     34      29.9676      0.00000
     35      31.8723      0.00000
     36      31.8723      0.00000
     37      34.2554      0.00000
     38      34.2554      0.00000
     39      35.1420      0.00000
     40      35.1420      0.00000
     41      37.6246      0.00000
     42      37.6246      0.00000
     43      38.7345      0.00000
     44      38.7345      0.00000
     45      40.1675      0.00000
     46      40.1675      0.00000
     47      41.3269      0.00000
     48      41.3269      0.00000
     49      44.1086      0.00000
     50      44.1086      0.00000
     51      45.4639      0.00000
     52      45.4639      0.00000
     53      46.4893      0.00000
     54      46.4893      0.00000
     55      47.9570      0.00000
     56      47.9570      0.00000
     57      49.6091      0.00000
     58      49.6091      0.00000
     59      51.0398      0.00000
     60      51.0398      0.00000
     61      53.0039      0.00000
     62      53.0039      0.00000
     63      54.4886      0.00000
     64      54.4886      0.00000

 k-point   487 :       0.3333    0.2917    0.5000
  band No.  band energies     occupation 
      1      -9.6252      2.00000
      2      -9.6252      2.00000
      3      -8.0711      2.00000
      4      -8.0711      2.00000
      5      -8.0493      2.00000
      6      -8.0493      2.00000
      7      -7.9219      2.00000
      8      -7.9219      2.00000
      9      -7.8882      2.00000
     10      -7.8882      2.00000
     11      -6.2027      2.00000
     12      -6.2027      2.00000
     13      -0.9052      2.00000
     14      -0.9052      2.00000
     15       1.1771      2.00000
     16       1.1771      2.00000
     17       3.7633      2.00000
     18       3.7633      2.00000
     19      11.4636      0.00000
     20      11.4637      0.00000
     21      12.6859      0.00000
     22      12.6859      0.00000
     23      14.1878      0.00000
     24      14.1878      0.00000
     25      18.7265      0.00000
     26      18.7265      0.00000
     27      19.7061      0.00000
     28      19.7061      0.00000
     29      23.3030      0.00000
     30      23.3030      0.00000
     31      27.4759      0.00000
     32      27.4759      0.00000
     33      30.0805      0.00000
     34      30.0805      0.00000
     35      31.9820      0.00000
     36      31.9820      0.00000
     37      34.2840      0.00000
     38      34.2840      0.00000
     39      35.2096      0.00000
     40      35.2096      0.00000
     41      37.4954      0.00000
     42      37.4954      0.00000
     43      38.6938      0.00000
     44      38.6938      0.00000
     45      40.3905      0.00000
     46      40.3905      0.00000
     47      42.0356      0.00000
     48      42.0356      0.00000
     49      43.7989      0.00000
     50      43.7990      0.00000
     51      44.8094      0.00000
     52      44.8094      0.00000
     53      46.3199      0.00000
     54      46.3200      0.00000
     55      48.2179      0.00000
     56      48.2179      0.00000
     57      49.6498      0.00000
     58      49.6498      0.00000
     59      51.5724      0.00000
     60      51.5724      0.00000
     61      52.8632      0.00000
     62      52.8632      0.00000
     63      53.7748      0.00000
     64      53.7748      0.00000

 k-point   488 :       0.3333    0.3333    0.5000
  band No.  band energies     occupation 
      1      -9.6228      2.00000
      2      -9.6228      2.00000
      3      -8.0670      2.00000
      4      -8.0670      2.00000
      5      -8.0518      2.00000
      6      -8.0518      2.00000
      7      -7.9173      2.00000
      8      -7.9173      2.00000
      9      -7.8942      2.00000
     10      -7.8942      2.00000
     11      -6.1788      2.00000
     12      -6.1788      2.00000
     13      -0.8926      2.00000
     14      -0.8926      2.00000
     15       1.0863      2.00000
     16       1.0863      2.00000
     17       3.7750      2.00000
     18       3.7750      2.00000
     19      11.5890      0.00000
     20      11.5890      0.00000
     21      12.5468      0.00000
     22      12.5468      0.00000
     23      14.2154      0.00000
     24      14.2154      0.00000
     25      19.1952      0.00000
     26      19.1952      0.00000
     27      19.2789      0.00000
     28      19.2789      0.00000
     29      23.1950      0.00000
     30      23.1950      0.00000
     31      27.5454      0.00000
     32      27.5454      0.00000
     33      30.1422      0.00000
     34      30.1422      0.00000
     35      32.0031      0.00000
     36      32.0031      0.00000
     37      34.4273      0.00000
     38      34.4273      0.00000
     39      35.1047      0.00000
     40      35.1047      0.00000
     41      37.4884      0.00000
     42      37.4884      0.00000
     43      38.6495      0.00000
     44      38.6496      0.00000
     45      40.2087      0.00000
     46      40.2087      0.00000
     47      43.0615      0.00000
     48      43.0615      0.00000
     49      43.7488      0.00000
     50      43.7488      0.00000
     51      44.1781      0.00000
     52      44.1782      0.00000
     53      45.9064      0.00000
     54      45.9064      0.00000
     55      48.4407      0.00000
     56      48.4407      0.00000
     57      49.7943      0.00000
     58      49.7943      0.00000
     59      51.9444      0.00000
     60      51.9444      0.00000
     61      52.7251      0.00000
     62      52.7252      0.00000
     63      53.3441      0.00000
     64      53.3441      0.00000


--------------------------------------------------------------------------------------------------------


 soft charge-density along one line, spin component           1
         0         1         2         3         4         5         6         7         8         9
 total charge-density along one line
 
 pseudopotential strength for first ion, spin component:           1
-11.409  -0.000   0.000   0.000  -0.000   0.451   0.000  -0.000
 -0.000 -11.413  -0.000  -0.000   0.000   0.000   0.453   0.000
  0.000  -0.000 -11.412   0.000  -0.000  -0.000   0.000   0.454
  0.000  -0.000   0.000 -11.413  -0.000   0.000   0.000  -0.000
 -0.000   0.000  -0.000  -0.000 -11.409   0.000   0.000   0.000
  0.451   0.000  -0.000   0.000   0.000   4.892   0.000   0.000
  0.000   0.453   0.000   0.000   0.000   0.000   4.890   0.000
 -0.000   0.000   0.454  -0.000   0.000   0.000   0.000   4.893
  0.000   0.000  -0.000   0.453   0.000   0.002  -0.000  -0.000
  0.000   0.000   0.000   0.000   0.451   0.000   0.002  -0.000
 -0.000   0.000   0.000  -0.000   0.000   0.000  -0.000   0.000
  0.000  -0.000   0.000   0.000  -0.000  -0.000   0.000   0.000
  0.000  -0.000   0.000   0.000   0.000  -0.000   0.003  -0.000
  0.000   0.000  -0.000   0.000  -0.000  -0.000  -0.000  -0.005
  0.000   0.000   0.000  -0.000  -0.000   0.004  -0.000  -0.000
 -0.000   0.008  -0.000  -0.000   0.010   0.000  -0.003   0.000
 -0.000  -0.000  -0.013  -0.000   0.000   0.000  -0.000   0.005
  0.010  -0.000  -0.000   0.008   0.000  -0.004   0.000   0.000
 total augmentation occupancy for first ion, spin component:           1
  2.013   0.000   0.000   0.002  -0.000   0.035   0.000   0.000   0.010  -0.000  -0.000  -0.000  -0.000   0.000  -0.018  -0.000
  0.000   2.010   0.000  -0.000   0.002   0.000   0.026   0.000  -0.000   0.010   0.000   0.000  -0.012   0.000   0.000  -0.002
  0.000   0.000   2.014   0.000   0.000   0.000   0.000   0.041   0.000   0.000  -0.001  -0.000  -0.000   0.022  -0.000  -0.000
  0.002  -0.000   0.000   2.010  -0.000   0.010  -0.000   0.000   0.026  -0.000   0.000  -0.000   0.000  -0.000  -0.012   0.000
 -0.000   0.002   0.000  -0.000   2.013  -0.000   0.010   0.000  -0.000   0.035  -0.000  -0.000  -0.018   0.000   0.000  -0.003
  0.035   0.000   0.000   0.010  -0.000   0.093   0.000   0.000   0.035  -0.000  -0.000  -0.000  -0.000   0.000  -0.203  -0.000
  0.000   0.026   0.000  -0.000   0.010   0.000   0.065   0.000  -0.000   0.035   0.000  -0.000  -0.139   0.000   0.000  -0.003
  0.000   0.000   0.041   0.000   0.000   0.000   0.000   0.118   0.000   0.000  -0.007  -0.000  -0.000   0.244  -0.000  -0.000
  0.010  -0.000   0.000   0.026  -0.000   0.035  -0.000   0.000   0.065  -0.000   0.000   0.000   0.000  -0.000  -0.139   0.000
 -0.000   0.010   0.000  -0.000   0.035  -0.000   0.035   0.000  -0.000   0.093  -0.000  -0.000  -0.203   0.000   0.000  -0.005
 -0.000   0.000  -0.001  -0.000  -0.000  -0.000   0.000  -0.007   0.000  -0.000   1.320   0.039  -0.000   0.002   0.000   0.000
 -0.000   0.000  -0.000  -0.000  -0.000  -0.000  -0.000  -0.000  -0.000  -0.000   0.039   0.002   0.000   0.000   0.000   0.000
 -0.000  -0.012  -0.000   0.000  -0.018  -0.000  -0.139  -0.000   0.000  -0.203   0.000   0.000   1.052   0.000  -0.000   0.023
  0.000   0.000   0.022  -0.000   0.000   0.000   0.000   0.244  -0.000   0.000   0.002   0.000   0.000   1.033   0.000   0.000
 -0.018   0.000  -0.000  -0.012   0.000  -0.203   0.000  -0.000  -0.139   0.000   0.000   0.000  -0.000  -0.000   1.052  -0.000
 -0.000  -0.002  -0.000   0.000  -0.003  -0.000  -0.003  -0.000   0.000  -0.005  -0.000   0.000   0.023   0.000  -0.000   0.001
  0.000  -0.000   0.004   0.000   0.000   0.000   0.000   0.006  -0.000   0.000   0.000  -0.000   0.000   0.023   0.000   0.000
 -0.003   0.000  -0.000  -0.002   0.000  -0.005   0.000  -0.000  -0.003   0.000   0.000   0.000  -0.000   0.000   0.023  -0.000


------------------------ aborting loop because EDIFF is reached ----------------------------------------





 total charge

# of ion       s       p       d       tot
------------------------------------------
    1        0.786   0.888  10.175  11.849
    2        0.786   0.888  10.175  11.849
    3        1.238   2.467   0.000   3.705
    4        1.238   2.467   0.000   3.705
--------------------------------------------------
tot          4.047   6.710  20.350  31.107
 
    CHARGE:  cpu time      0.0249: real time      0.0250
    FORLOC:  cpu time      0.0002: real time      0.0002
    FORNL :  cpu time      0.1657: real time      0.1665
    FORCOR:  cpu time      0.1395: real time      0.1399
    FORHAR:  cpu time      0.0003: real time      0.0003
    MIXING:  cpu time      0.0002: real time      0.0002
    OFIELD:  cpu time      0.0000: real time      0.0000

 VOLUME and BASIS-vectors are now :
 -----------------------------------------------------------------------------
  energy-cutoff  :      400.00
  volume of cell :       46.07
      direct lattice vectors                 reciprocal lattice vectors
     3.196921834  0.000000000  0.000000000     0.312800892  0.180595679  0.000000000
    -1.598460917  2.768615522  0.000000000     0.000000000  0.361191358  0.000000000
     0.000000000  0.000000000  5.205169397     0.000000000  0.000000000  0.192116706

  length of vectors
     3.196921834  3.196921834  5.205169397     0.361191358  0.361191358  0.192116706


 FORCES acting on ions
    electron-ion (+dipol)            ewald-force                    non-local-force                 convergence-correction
 -----------------------------------------------------------------------------------------------
   -.822E-04 -.746E-04 -.374E+01   0.916E-07 -.475E-07 0.372E+01   0.201E-16 -.973E-17 0.137E-01   -.419E-08 -.163E-08 0.655E-03
   -.235E-04 -.109E-03 -.374E+01   -.916E-07 0.475E-07 0.372E+01   -.182E-16 -.128E-16 0.137E-01   0.692E-09 -.444E-08 0.655E-03
   -.278E-04 0.240E-04 0.349E+01   0.819E-07 -.428E-07 -.372E+01   0.692E-17 0.359E-17 0.241E+00   -.106E-07 0.613E-08 0.328E-05
   0.345E-04 -.120E-04 0.349E+01   -.819E-07 0.428E-07 -.372E+01   0.109E-16 -.330E-17 0.241E+00   0.106E-07 -.608E-08 0.328E-05
 -----------------------------------------------------------------------------------------------
   -.990E-04 -.171E-03 -.504E+00   -.867E-14 0.193E-14 0.178E-14   0.197E-16 -.222E-16 0.509E+00   -.346E-08 -.602E-08 0.132E-02
 
 
 POSITION                                       TOTAL-FORCE (eV/Angst)
 -----------------------------------------------------------------------------------
     -0.00000      1.84574      5.20068        -0.000000      0.000000     -0.000486
      1.59846      0.92287      2.59809        -0.000000      0.000000     -0.000486
     -0.00000      1.84574      1.95643        -0.000000     -0.000000      0.000486
      1.59846      0.92287      4.55901         0.000000     -0.000000      0.000486
 -----------------------------------------------------------------------------------
    total drift:                               -0.000099     -0.000171      0.005723


--------------------------------------------------------------------------------------------------------



  FREE ENERGIE OF THE ION-ELECTRON SYSTEM (eV)
  ---------------------------------------------------
  free  energy   TOTEN  =       -24.31974035 eV

  energy  without entropy=      -24.31974035  energy(sigma->0) =      -24.31974035
 


--------------------------------------------------------------------------------------------------------


    POTLOK:  cpu time      0.1266: real time      0.1270


--------------------------------------------------------------------------------------------------------


 stress matrix after NEB project (eV)
      0.00000      0.00000      0.00000
      0.00000      0.00000      0.00000
      0.00000      0.00000      0.00000
  FORCES: max atom, RMS     0.000486    0.000486
  FORCE total and by dimension    0.000973    0.000486
  Stress total and by dimension    0.000000    0.000000


--------------------------------------------------------------------------------------------------------


  
 reached required accuracy - stopping structural energy minimisation
     LOOP+:  cpu time    117.3696: real time    118.3461
    4ORBIT:  cpu time      0.0000: real time      0.0000



 total charge

# of ion       s       p       d       tot
------------------------------------------
    1        0.786   0.888  10.175  11.849
    2        0.786   0.888  10.175  11.849
    3        1.238   2.467   0.000   3.705
    4        1.238   2.467   0.000   3.705
--------------------------------------------------
tot          4.047   6.710  20.350  31.107
 

 total amount of memory used by VASP MPI-rank0   166532. kBytes
=======================================================================

   base      :      30000. kBytes
   nonl-proj :     121485. kBytes
   fftplans  :        101. kBytes
   grid      :        393. kBytes
   one-center:         62. kBytes
   wavefun   :      14491. kBytes
 
  
  
 General timing and accounting informations for this job:
 ========================================================
  
                  Total CPU time used (sec):      121.575
                            User time (sec):      120.690
                          System time (sec):        0.886
                         Elapsed time (sec):      124.139
  
                   Maximum memory used (kb):      449300.
                   Average memory used (kb):          N/A
  
                          Minor page faults:        68496
                          Major page faults:          895
                 Voluntary context switches:         3995
