   4   4   1   0
  0.1143208E+02  0.3188930E-09  0.3188930E-09  0.5192357E-09  0.5000000E-15
  1.000000000000000E-004
  CAR 
 unknown system                          
     17.23730260    -11.97026041  301      5.18661417      1.00000000
    -11.970  0.0000E+00  0.0000E+00
    -11.873  0.0000E+00  0.0000E+00
    -11.776  0.0000E+00  0.0000E+00
    -11.678  0.0000E+00  0.0000E+00
    -11.581  0.0000E+00  0.0000E+00
    -11.483  0.0000E+00  0.0000E+00
    -11.386  0.0000E+00  0.0000E+00
    -11.289  0.0000E+00  0.0000E+00
    -11.191  0.0000E+00  0.0000E+00
    -11.094  0.0000E+00  0.0000E+00
    -10.997  0.0000E+00  0.0000E+00
    -10.899  0.0000E+00  0.0000E+00
    -10.802  0.0000E+00  0.0000E+00
    -10.705  0.0000E+00  0.0000E+00
    -10.607  0.2789E-02  0.4756E-04
    -10.510  0.1363E-01  0.8089E-03
    -10.413  0.2911E-01  0.2851E-02
    -10.315  0.4017E-01  0.6009E-02
    -10.218  0.6019E-01  0.1094E-01
    -10.120  0.6972E-01  0.1745E-01
    -10.023  0.8892E-01  0.2497E-01
     -9.926  0.1527E+00  0.3601E-01
     -9.828  0.3066E+00  0.5764E-01
     -9.731  0.5911E+00  0.1032E+00
     -9.634  0.7585E+00  0.2000E+00
     -9.536  0.0000E+00  0.2000E+00
     -9.439  0.0000E+00  0.2000E+00
     -9.342  0.0000E+00  0.2000E+00
     -9.244  0.0000E+00  0.2000E+00
     -9.147  0.0000E+00  0.2000E+00
     -9.050  0.0000E+00  0.2000E+00
     -8.952  0.0000E+00  0.2000E+00
     -8.855  0.0000E+00  0.2000E+00
     -8.757  0.0000E+00  0.2000E+00
     -8.660  0.0000E+00  0.2000E+00
     -8.563  0.0000E+00  0.2000E+00
     -8.465  0.0000E+00  0.2000E+00
     -8.368  0.0000E+00  0.2000E+00
     -8.271  0.0000E+00  0.2000E+00
     -8.173  0.9377E+00  0.2092E+00
     -8.076  0.5158E+01  0.4561E+00
     -7.979  0.2417E+01  0.6383E+00
     -7.881  0.6116E+01  0.8898E+00
     -7.784  0.8220E+00  0.1012E+01
     -7.686  0.7156E-01  0.1019E+01
     -7.589  0.6530E-01  0.1026E+01
     -7.492  0.6085E-01  0.1032E+01
     -7.394  0.6678E-01  0.1038E+01
     -7.297  0.6645E-01  0.1045E+01
     -7.200  0.7262E-01  0.1052E+01
     -7.102  0.8025E-01  0.1059E+01
     -7.005  0.8827E-01  0.1067E+01
     -6.908  0.9668E-01  0.1076E+01
     -6.810  0.1443E+00  0.1088E+01
     -6.713  0.1435E+00  0.1102E+01
     -6.616  0.1331E+00  0.1118E+01
     -6.518  0.1154E+00  0.1129E+01
     -6.421  0.1191E+00  0.1141E+01
     -6.323  0.1887E+00  0.1155E+01
     -6.226  0.1609E+00  0.1171E+01
     -6.129  0.1648E+00  0.1188E+01
     -6.031  0.0000E+00  0.1200E+01
     -5.934  0.0000E+00  0.1200E+01
     -5.837  0.0000E+00  0.1200E+01
     -5.739  0.0000E+00  0.1200E+01
     -5.642  0.0000E+00  0.1200E+01
     -5.545  0.0000E+00  0.1200E+01
     -5.447  0.0000E+00  0.1200E+01
     -5.350  0.0000E+00  0.1200E+01
     -5.253  0.0000E+00  0.1200E+01
     -5.155  0.0000E+00  0.1200E+01
     -5.058  0.0000E+00  0.1200E+01
     -4.960  0.0000E+00  0.1200E+01
     -4.863  0.0000E+00  0.1200E+01
     -4.766  0.0000E+00  0.1200E+01
     -4.668  0.0000E+00  0.1200E+01
     -4.571  0.0000E+00  0.1200E+01
     -4.474  0.0000E+00  0.1200E+01
     -4.376  0.0000E+00  0.1200E+01
     -4.279  0.0000E+00  0.1200E+01
     -4.182  0.0000E+00  0.1200E+01
     -4.084  0.0000E+00  0.1200E+01
     -3.987  0.0000E+00  0.1200E+01
     -3.890  0.0000E+00  0.1200E+01
     -3.792  0.0000E+00  0.1200E+01
     -3.695  0.0000E+00  0.1200E+01
     -3.597  0.0000E+00  0.1200E+01
     -3.500  0.0000E+00  0.1200E+01
     -3.403  0.0000E+00  0.1200E+01
     -3.305  0.0000E+00  0.1200E+01
     -3.208  0.0000E+00  0.1200E+01
     -3.111  0.0000E+00  0.1200E+01
     -3.013  0.0000E+00  0.1200E+01
     -2.916  0.0000E+00  0.1200E+01
     -2.819  0.0000E+00  0.1200E+01
     -2.721  0.0000E+00  0.1200E+01
     -2.624  0.0000E+00  0.1200E+01
     -2.526  0.0000E+00  0.1200E+01
     -2.429  0.0000E+00  0.1200E+01
     -2.332  0.0000E+00  0.1200E+01
     -2.234  0.0000E+00  0.1200E+01
     -2.137  0.0000E+00  0.1200E+01
     -2.040  0.0000E+00  0.1200E+01
     -1.942  0.0000E+00  0.1200E+01
     -1.845  0.0000E+00  0.1200E+01
     -1.748  0.0000E+00  0.1200E+01
     -1.650  0.0000E+00  0.1200E+01
     -1.553  0.0000E+00  0.1200E+01
     -1.456  0.1802E-02  0.1200E+01
     -1.358  0.1267E-01  0.1201E+01
     -1.261  0.3005E-01  0.1203E+01
     -1.163  0.5314E-01  0.1207E+01
     -1.066  0.7223E-01  0.1213E+01
     -0.969  0.1346E+00  0.1223E+01
     -0.871  0.1511E+00  0.1237E+01
     -0.774  0.1689E+00  0.1253E+01
     -0.677  0.1574E+00  0.1270E+01
     -0.579  0.9441E-01  0.1283E+01
     -0.482  0.8350E-01  0.1292E+01
     -0.385  0.7664E-01  0.1299E+01
     -0.287  0.7155E-01  0.1307E+01
     -0.190  0.7642E-01  0.1314E+01
     -0.093  0.8711E-01  0.1322E+01
      0.005  0.9384E-01  0.1330E+01
      0.102  0.5894E-01  0.1339E+01
      0.200  0.5555E-01  0.1344E+01
      0.297  0.7513E-01  0.1350E+01
      0.394  0.3521E-01  0.1356E+01
      0.492  0.3406E-01  0.1359E+01
      0.589  0.3333E-01  0.1362E+01
      0.686  0.3354E-01  0.1366E+01
      0.784  0.3409E-01  0.1369E+01
      0.881  0.3476E-01  0.1372E+01
      0.978  0.3574E-01  0.1376E+01
      1.076  0.3685E-01  0.1379E+01
      1.173  0.3811E-01  0.1383E+01
      1.271  0.1955E+00  0.1391E+01
      1.368  0.8467E-01  0.1403E+01
      1.465  0.6739E-01  0.1410E+01
      1.563  0.6163E-01  0.1416E+01
      1.660  0.6202E-01  0.1422E+01
      1.757  0.6609E-01  0.1428E+01
      1.855  0.9578E-01  0.1437E+01
      1.952  0.9938E-01  0.1446E+01
      2.049  0.1068E+00  0.1456E+01
      2.147  0.1081E+00  0.1467E+01
      2.244  0.1081E+00  0.1477E+01
      2.341  0.1068E+00  0.1488E+01
      2.439  0.9887E-01  0.1498E+01
      2.536  0.9102E-01  0.1507E+01
      2.634  0.1009E+00  0.1516E+01
      2.731  0.1015E+00  0.1526E+01
      2.828  0.1050E+00  0.1536E+01
      2.926  0.1078E+00  0.1546E+01
      3.023  0.1377E+00  0.1557E+01
      3.120  0.1473E+00  0.1571E+01
      3.218  0.1519E+00  0.1586E+01
      3.315  0.1731E+00  0.1603E+01
      3.412  0.1404E+00  0.1617E+01
      3.510  0.1397E+00  0.1630E+01
      3.607  0.1521E+00  0.1645E+01
      3.704  0.1780E+00  0.1660E+01
      3.802  0.2140E+00  0.1680E+01
      3.899  0.2341E+00  0.1702E+01
      3.997  0.1484E+00  0.1721E+01
      4.094  0.1300E+00  0.1734E+01
      4.191  0.1107E+00  0.1746E+01
      4.289  0.9268E-01  0.1756E+01
      4.386  0.7875E-01  0.1764E+01
      4.483  0.7089E-01  0.1772E+01
      4.581  0.6552E-01  0.1778E+01
      4.678  0.5588E-01  0.1784E+01
      4.775  0.4614E-01  0.1789E+01
      4.873  0.4042E-01  0.1793E+01
      4.970  0.3338E-01  0.1797E+01
      5.067  0.1518E-01  0.1799E+01
      5.165  0.2175E-02  0.1800E+01
      5.262  0.0000E+00  0.1800E+01
      5.360  0.0000E+00  0.1800E+01
      5.457  0.0000E+00  0.1800E+01
      5.554  0.0000E+00  0.1800E+01
      5.652  0.0000E+00  0.1800E+01
      5.749  0.0000E+00  0.1800E+01
      5.846  0.0000E+00  0.1800E+01
      5.944  0.0000E+00  0.1800E+01
      6.041  0.0000E+00  0.1800E+01
      6.138  0.0000E+00  0.1800E+01
      6.236  0.0000E+00  0.1800E+01
      6.333  0.0000E+00  0.1800E+01
      6.431  0.0000E+00  0.1800E+01
      6.528  0.0000E+00  0.1800E+01
      6.625  0.0000E+00  0.1800E+01
      6.723  0.0000E+00  0.1800E+01
      6.820  0.0000E+00  0.1800E+01
      6.917  0.0000E+00  0.1800E+01
      7.015  0.0000E+00  0.1800E+01
      7.112  0.0000E+00  0.1800E+01
      7.209  0.0000E+00  0.1800E+01
      7.307  0.0000E+00  0.1800E+01
      7.404  0.0000E+00  0.1800E+01
      7.501  0.0000E+00  0.1800E+01
      7.599  0.2629E-03  0.1800E+01
      7.696  0.5827E-03  0.1800E+01
      7.794  0.9435E-03  0.1800E+01
      7.891  0.1345E-02  0.1800E+01
      7.988  0.1788E-02  0.1800E+01
      8.086  0.2272E-02  0.1801E+01
      8.183  0.2797E-02  0.1801E+01
      8.280  0.3362E-02  0.1801E+01
      8.378  0.3969E-02  0.1801E+01
      8.475  0.4617E-02  0.1802E+01
      8.572  0.5305E-02  0.1802E+01
      8.670  0.6035E-02  0.1803E+01
      8.767  0.6711E-02  0.1804E+01
      8.864  0.8103E-02  0.1804E+01
      8.962  0.9499E-02  0.1805E+01
      9.059  0.1156E-01  0.1806E+01
      9.157  0.1366E-01  0.1807E+01
      9.254  0.1579E-01  0.1809E+01
      9.351  0.1924E-01  0.1810E+01
      9.449  0.2503E-01  0.1813E+01
      9.546  0.3237E-01  0.1815E+01
      9.643  0.4130E-01  0.1819E+01
      9.741  0.6319E-01  0.1824E+01
      9.838  0.7524E-01  0.1831E+01
      9.935  0.8040E-01  0.1838E+01
     10.033  0.8391E-01  0.1846E+01
     10.130  0.8505E-01  0.1855E+01
     10.227  0.8493E-01  0.1863E+01
     10.325  0.8708E-01  0.1871E+01
     10.422  0.1029E+00  0.1882E+01
     10.520  0.8438E-01  0.1890E+01
     10.617  0.9451E-01  0.1898E+01
     10.714  0.1326E+00  0.1909E+01
     10.812  0.8779E-01  0.1921E+01
     10.909  0.8893E-01  0.1930E+01
     11.006  0.8364E-01  0.1938E+01
     11.104  0.7810E-01  0.1946E+01
     11.201  0.9877E-01  0.1954E+01
     11.298  0.8328E-01  0.1963E+01
     11.396  0.6463E-01  0.1970E+01
     11.493  0.5766E-01  0.1976E+01
     11.591  0.5045E-01  0.1982E+01
     11.688  0.4300E-01  0.1986E+01
     11.785  0.4080E-01  0.1991E+01
     11.883  0.2635E-01  0.1994E+01
     11.980  0.5377E-01  0.1997E+01
     12.077  0.9403E-01  0.2006E+01
     12.175  0.8551E-01  0.2014E+01
     12.272  0.8755E-01  0.2023E+01
     12.369  0.8731E-01  0.2031E+01
     12.467  0.8583E-01  0.2040E+01
     12.564  0.9702E-01  0.2048E+01
     12.661  0.1624E+00  0.2063E+01
     12.759  0.1415E+00  0.2078E+01
     12.856  0.2805E-01  0.2086E+01
     12.954  0.3187E-01  0.2089E+01
     13.051  0.6865E-01  0.2093E+01
     13.148  0.1358E+00  0.2103E+01
     13.246  0.2318E+00  0.2121E+01
     13.343  0.2380E+00  0.2144E+01
     13.440  0.2605E+00  0.2172E+01
     13.538  0.4947E-01  0.2186E+01
     13.635  0.3038E-01  0.2189E+01
     13.732  0.2396E-01  0.2192E+01
     13.830  0.1843E-01  0.2194E+01
     13.927  0.1347E-01  0.2195E+01
     14.024  0.9246E-02  0.2197E+01
     14.122  0.7445E-02  0.2197E+01
     14.219  0.8062E-01  0.2203E+01
     14.317  0.4611E-01  0.2207E+01
     14.414  0.5998E-01  0.2212E+01
     14.511  0.7632E-01  0.2219E+01
     14.609  0.8643E-01  0.2227E+01
     14.706  0.1040E+00  0.2236E+01
     14.803  0.1772E+00  0.2251E+01
     14.901  0.1546E+00  0.2266E+01
     14.998  0.1792E+00  0.2282E+01
     15.095  0.1739E+00  0.2299E+01
     15.193  0.1736E+00  0.2316E+01
     15.290  0.2166E+00  0.2332E+01
     15.387  0.1577E+00  0.2351E+01
     15.485  0.1247E+00  0.2365E+01
     15.582  0.1513E+00  0.2378E+01
     15.680  0.1077E+00  0.2393E+01
     15.777  0.3051E-01  0.2398E+01
     15.874  0.6300E-02  0.2400E+01
     15.972  0.0000E+00  0.2400E+01
     16.069  0.0000E+00  0.2400E+01
     16.166  0.0000E+00  0.2400E+01
     16.264  0.0000E+00  0.2400E+01
     16.361  0.0000E+00  0.2400E+01
     16.458  0.0000E+00  0.2400E+01
     16.556  0.0000E+00  0.2400E+01
     16.653  0.0000E+00  0.2400E+01
     16.751  0.0000E+00  0.2400E+01
     16.848  0.0000E+00  0.2400E+01
     16.945  0.0000E+00  0.2400E+01
     17.043  0.0000E+00  0.2400E+01
     17.140  0.0000E+00  0.2400E+01
     17.237  0.0000E+00  0.2400E+01
     17.23730260    -11.97026041  301      5.18661417      1.00000000
    -11.970  0.0000E+00  0.0000E+00  0.0000E+00
    -11.873  0.0000E+00  0.0000E+00  0.0000E+00
    -11.776  0.0000E+00  0.0000E+00  0.0000E+00
    -11.678  0.0000E+00  0.0000E+00  0.0000E+00
    -11.581  0.0000E+00  0.0000E+00  0.0000E+00
    -11.483  0.0000E+00  0.0000E+00  0.0000E+00
    -11.386  0.0000E+00  0.0000E+00  0.0000E+00
    -11.289  0.0000E+00  0.0000E+00  0.0000E+00
    -11.191  0.0000E+00  0.0000E+00  0.0000E+00
    -11.094  0.0000E+00  0.0000E+00  0.0000E+00
    -10.997  0.0000E+00  0.0000E+00  0.0000E+00
    -10.899  0.0000E+00  0.0000E+00  0.0000E+00
    -10.802  0.0000E+00  0.0000E+00  0.0000E+00
    -10.705  0.0000E+00  0.0000E+00  0.0000E+00
    -10.607  0.5545E-02  0.2167E-03  0.9834E-03
    -10.510  0.2626E-01  0.1283E-02  0.6088E-02
    -10.413  0.5500E-01  0.3040E-02  0.1471E-01
    -10.315  0.6407E-01  0.6828E-02  0.4224E-01
    -10.218  0.8875E-01  0.1171E-01  0.7755E-01
    -10.120  0.8999E-01  0.1585E-01  0.1173E+00
    -10.023  0.9774E-01  0.2270E-01  0.1897E+00
     -9.926  0.1278E+00  0.4358E-01  0.4278E+00
     -9.828  0.1823E+00  0.9430E-01  0.1062E+01
     -9.731  0.2088E+00  0.1918E+00  0.2466E+01
     -9.634  0.8670E-01  0.2614E+00  0.3704E+01
     -9.536  0.0000E+00  0.0000E+00  0.0000E+00
     -9.439  0.0000E+00  0.0000E+00  0.0000E+00
     -9.342  0.0000E+00  0.0000E+00  0.0000E+00
     -9.244  0.0000E+00  0.0000E+00  0.0000E+00
     -9.147  0.0000E+00  0.0000E+00  0.0000E+00
     -9.050  0.0000E+00  0.0000E+00  0.0000E+00
     -8.952  0.0000E+00  0.0000E+00  0.0000E+00
     -8.855  0.0000E+00  0.0000E+00  0.0000E+00
     -8.757  0.0000E+00  0.0000E+00  0.0000E+00
     -8.660  0.0000E+00  0.0000E+00  0.0000E+00
     -8.563  0.0000E+00  0.0000E+00  0.0000E+00
     -8.465  0.0000E+00  0.0000E+00  0.0000E+00
     -8.368  0.0000E+00  0.0000E+00  0.0000E+00
     -8.271  0.0000E+00  0.0000E+00  0.0000E+00
     -8.173  0.4033E-02  0.4300E-02  0.9072E+01
     -8.076  0.4730E-01  0.2901E-01  0.5012E+02
     -7.979  0.3479E-01  0.1119E-01  0.2364E+02
     -7.881  0.3072E-01  0.1504E-01  0.6044E+02
     -7.784  0.2801E-01  0.4689E-02  0.8040E+01
     -7.686  0.2437E-01  0.4729E-02  0.5971E+00
     -7.589  0.2610E-01  0.5909E-02  0.5201E+00
     -7.492  0.2854E-01  0.7550E-02  0.4550E+00
     -7.394  0.3402E-01  0.1025E-01  0.4745E+00
     -7.297  0.3475E-01  0.1249E-01  0.4501E+00
     -7.200  0.3776E-01  0.1517E-01  0.4794E+00
     -7.102  0.4117E-01  0.1811E-01  0.5197E+00
     -7.005  0.4464E-01  0.2130E-01  0.5616E+00
     -6.908  0.4816E-01  0.2473E-01  0.6052E+00
     -6.810  0.6912E-01  0.4127E-01  0.8714E+00
     -6.713  0.6261E-01  0.4632E-01  0.8405E+00
     -6.616  0.5122E-01  0.4809E-01  0.7553E+00
     -6.518  0.3931E-01  0.4525E-01  0.6404E+00
     -6.421  0.3618E-01  0.4957E-01  0.6504E+00
     -6.323  0.4135E-01  0.8772E-01  0.1003E+01
     -6.226  0.2754E-01  0.7815E-01  0.8404E+00
     -6.129  0.1850E-01  0.8507E-01  0.8441E+00
     -6.031  0.0000E+00  0.0000E+00  0.0000E+00
     -5.934  0.0000E+00  0.0000E+00  0.0000E+00
     -5.837  0.0000E+00  0.0000E+00  0.0000E+00
     -5.739  0.0000E+00  0.0000E+00  0.0000E+00
     -5.642  0.0000E+00  0.0000E+00  0.0000E+00
     -5.545  0.0000E+00  0.0000E+00  0.0000E+00
     -5.447  0.0000E+00  0.0000E+00  0.0000E+00
     -5.350  0.0000E+00  0.0000E+00  0.0000E+00
     -5.253  0.0000E+00  0.0000E+00  0.0000E+00
     -5.155  0.0000E+00  0.0000E+00  0.0000E+00
     -5.058  0.0000E+00  0.0000E+00  0.0000E+00
     -4.960  0.0000E+00  0.0000E+00  0.0000E+00
     -4.863  0.0000E+00  0.0000E+00  0.0000E+00
     -4.766  0.0000E+00  0.0000E+00  0.0000E+00
     -4.668  0.0000E+00  0.0000E+00  0.0000E+00
     -4.571  0.0000E+00  0.0000E+00  0.0000E+00
     -4.474  0.0000E+00  0.0000E+00  0.0000E+00
     -4.376  0.0000E+00  0.0000E+00  0.0000E+00
     -4.279  0.0000E+00  0.0000E+00  0.0000E+00
     -4.182  0.0000E+00  0.0000E+00  0.0000E+00
     -4.084  0.0000E+00  0.0000E+00  0.0000E+00
     -3.987  0.0000E+00  0.0000E+00  0.0000E+00
     -3.890  0.0000E+00  0.0000E+00  0.0000E+00
     -3.792  0.0000E+00  0.0000E+00  0.0000E+00
     -3.695  0.0000E+00  0.0000E+00  0.0000E+00
     -3.597  0.0000E+00  0.0000E+00  0.0000E+00
     -3.500  0.0000E+00  0.0000E+00  0.0000E+00
     -3.403  0.0000E+00  0.0000E+00  0.0000E+00
     -3.305  0.0000E+00  0.0000E+00  0.0000E+00
     -3.208  0.0000E+00  0.0000E+00  0.0000E+00
     -3.111  0.0000E+00  0.0000E+00  0.0000E+00
     -3.013  0.0000E+00  0.0000E+00  0.0000E+00
     -2.916  0.0000E+00  0.0000E+00  0.0000E+00
     -2.819  0.0000E+00  0.0000E+00  0.0000E+00
     -2.721  0.0000E+00  0.0000E+00  0.0000E+00
     -2.624  0.0000E+00  0.0000E+00  0.0000E+00
     -2.526  0.0000E+00  0.0000E+00  0.0000E+00
     -2.429  0.0000E+00  0.0000E+00  0.0000E+00
     -2.332  0.0000E+00  0.0000E+00  0.0000E+00
     -2.234  0.0000E+00  0.0000E+00  0.0000E+00
     -2.137  0.0000E+00  0.0000E+00  0.0000E+00
     -2.040  0.0000E+00  0.0000E+00  0.0000E+00
     -1.942  0.0000E+00  0.0000E+00  0.0000E+00
     -1.845  0.0000E+00  0.0000E+00  0.0000E+00
     -1.748  0.0000E+00  0.0000E+00  0.0000E+00
     -1.650  0.0000E+00  0.0000E+00  0.0000E+00
     -1.553  0.0000E+00  0.0000E+00  0.0000E+00
     -1.456  0.4857E-02  0.1518E-02  0.4196E-03
     -1.358  0.3658E-01  0.9223E-02  0.3220E-02
     -1.261  0.8933E-01  0.2036E-01  0.7760E-02
     -1.163  0.1612E+00  0.3428E-01  0.1368E-01
     -1.066  0.2279E+00  0.4169E-01  0.1901E-01
     -0.969  0.4406E+00  0.6987E-01  0.3583E-01
     -0.871  0.4937E+00  0.7827E-01  0.4036E-01
     -0.774  0.5472E+00  0.8904E-01  0.4580E-01
     -0.677  0.4963E+00  0.8471E-01  0.4990E-01
     -0.579  0.2845E+00  0.5326E-01  0.3468E-01
     -0.482  0.2434E+00  0.4926E-01  0.3292E-01
     -0.385  0.2157E+00  0.4742E-01  0.3215E-01
     -0.287  0.1940E+00  0.4642E-01  0.3171E-01
     -0.190  0.2034E+00  0.5098E-01  0.3411E-01
     -0.093  0.2272E+00  0.6039E-01  0.3858E-01
      0.005  0.2378E+00  0.6787E-01  0.4190E-01
      0.102  0.1318E+00  0.4884E-01  0.2982E-01
      0.200  0.1180E+00  0.4852E-01  0.2878E-01
      0.297  0.1464E+00  0.6825E-01  0.4319E-01
      0.394  0.6387E-01  0.3750E-01  0.1694E-01
      0.492  0.5695E-01  0.3875E-01  0.1638E-01
      0.589  0.5105E-01  0.4041E-01  0.1592E-01
      0.686  0.4697E-01  0.4313E-01  0.1575E-01
      0.784  0.4324E-01  0.4639E-01  0.1571E-01
      0.881  0.4019E-01  0.4955E-01  0.1573E-01
      0.978  0.3814E-01  0.5282E-01  0.1590E-01
      1.076  0.3655E-01  0.5611E-01  0.1615E-01
      1.173  0.3542E-01  0.5945E-01  0.1648E-01
      1.271  0.2094E+00  0.2943E+00  0.8239E-01
      1.368  0.8395E-01  0.1222E+00  0.4220E-01
      1.465  0.6214E-01  0.9932E-01  0.3371E-01
      1.563  0.5463E-01  0.9139E-01  0.3120E-01
      1.660  0.5227E-01  0.9263E-01  0.3193E-01
      1.757  0.5058E-01  0.1013E+00  0.3411E-01
      1.855  0.5621E-01  0.1607E+00  0.4483E-01
      1.952  0.5535E-01  0.1674E+00  0.4692E-01
      2.049  0.6025E-01  0.1753E+00  0.5313E-01
      2.147  0.5777E-01  0.1787E+00  0.5388E-01
      2.244  0.5447E-01  0.1801E+00  0.5379E-01
      2.341  0.5036E-01  0.1796E+00  0.5288E-01
      2.439  0.4331E-01  0.1672E+00  0.4917E-01
      2.536  0.3636E-01  0.1556E+00  0.4497E-01
      2.634  0.3146E-01  0.1757E+00  0.4996E-01
      2.731  0.2995E-01  0.1760E+00  0.5109E-01
      2.828  0.2963E-01  0.1806E+00  0.5387E-01
      2.926  0.2877E-01  0.1824E+00  0.5737E-01
      3.023  0.3524E-01  0.2313E+00  0.7266E-01
      3.120  0.3572E-01  0.2436E+00  0.8040E-01
      3.218  0.3279E-01  0.2473E+00  0.8604E-01
      3.315  0.3112E-01  0.2746E+00  0.1051E+00
      3.412  0.2592E-01  0.2185E+00  0.8690E-01
      3.510  0.2290E-01  0.2133E+00  0.8933E-01
      3.607  0.2120E-01  0.2299E+00  0.9816E-01
      3.704  0.1966E-01  0.2658E+00  0.1164E+00
      3.802  0.1750E-01  0.3147E+00  0.1423E+00
      3.899  0.1608E-01  0.3379E+00  0.1602E+00
      3.997  0.1156E-01  0.2019E+00  0.1114E+00
      4.094  0.8225E-02  0.1690E+00  0.1025E+00
      4.191  0.6245E-02  0.1389E+00  0.9017E-01
      4.289  0.4743E-02  0.1125E+00  0.7778E-01
      4.386  0.3440E-02  0.9135E-01  0.6863E-01
      4.483  0.2271E-02  0.7725E-01  0.6464E-01
      4.581  0.1402E-02  0.6698E-01  0.6268E-01
      4.678  0.8922E-03  0.5449E-01  0.5503E-01
      4.775  0.5924E-03  0.4270E-01  0.4674E-01
      4.873  0.2725E-03  0.3303E-01  0.4321E-01
      4.970  0.8899E-04  0.2370E-01  0.3779E-01
      5.067  0.3047E-04  0.1035E-01  0.1742E-01
      5.165  0.2156E-05  0.1388E-02  0.2546E-02
      5.262  0.0000E+00  0.0000E+00  0.0000E+00
      5.360  0.0000E+00  0.0000E+00  0.0000E+00
      5.457  0.0000E+00  0.0000E+00  0.0000E+00
      5.554  0.0000E+00  0.0000E+00  0.0000E+00
      5.652  0.0000E+00  0.0000E+00  0.0000E+00
      5.749  0.0000E+00  0.0000E+00  0.0000E+00
      5.846  0.0000E+00  0.0000E+00  0.0000E+00
      5.944  0.0000E+00  0.0000E+00  0.0000E+00
      6.041  0.0000E+00  0.0000E+00  0.0000E+00
      6.138  0.0000E+00  0.0000E+00  0.0000E+00
      6.236  0.0000E+00  0.0000E+00  0.0000E+00
      6.333  0.0000E+00  0.0000E+00  0.0000E+00
      6.431  0.0000E+00  0.0000E+00  0.0000E+00
      6.528  0.0000E+00  0.0000E+00  0.0000E+00
      6.625  0.0000E+00  0.0000E+00  0.0000E+00
      6.723  0.0000E+00  0.0000E+00  0.0000E+00
      6.820  0.0000E+00  0.0000E+00  0.0000E+00
      6.917  0.0000E+00  0.0000E+00  0.0000E+00
      7.015  0.0000E+00  0.0000E+00  0.0000E+00
      7.112  0.0000E+00  0.0000E+00  0.0000E+00
      7.209  0.0000E+00  0.0000E+00  0.0000E+00
      7.307  0.0000E+00  0.0000E+00  0.0000E+00
      7.404  0.0000E+00  0.0000E+00  0.0000E+00
      7.501  0.0000E+00  0.0000E+00  0.0000E+00
      7.599  0.4977E-03  0.9583E-04  0.2195E-04
      7.696  0.1092E-02  0.2231E-03  0.4784E-04
      7.794  0.1754E-02  0.3763E-03  0.7630E-04
      7.891  0.2481E-02  0.5554E-03  0.1073E-03
      7.988  0.3275E-02  0.7605E-03  0.1410E-03
      8.086  0.4136E-02  0.9916E-03  0.1772E-03
      8.183  0.5063E-02  0.1249E-02  0.2159E-03
      8.280  0.6057E-02  0.1532E-02  0.2573E-03
      8.378  0.7117E-02  0.1841E-02  0.3012E-03
      8.475  0.8244E-02  0.2175E-02  0.3477E-03
      8.572  0.9437E-02  0.2536E-02  0.3968E-03
      8.670  0.1070E-01  0.2923E-02  0.4485E-03
      8.767  0.1129E-01  0.4037E-02  0.4528E-03
      8.864  0.1331E-01  0.5410E-02  0.5877E-03
      8.962  0.1536E-01  0.6843E-02  0.7534E-03
      9.059  0.1850E-01  0.8825E-02  0.9853E-03
      9.157  0.2166E-01  0.1094E-01  0.1248E-02
      9.254  0.2484E-01  0.1318E-01  0.1540E-02
      9.351  0.2998E-01  0.1762E-01  0.2749E-02
      9.449  0.3868E-01  0.2584E-01  0.5524E-02
      9.546  0.5043E-01  0.3620E-01  0.9039E-02
      9.643  0.6516E-01  0.4878E-01  0.1325E-01
      9.741  0.9749E-01  0.7860E-01  0.2045E-01
      9.838  0.1150E+00  0.9668E-01  0.2562E-01
      9.935  0.1228E+00  0.1059E+00  0.3117E-01
     10.033  0.1280E+00  0.1122E+00  0.3624E-01
     10.130  0.1297E+00  0.1151E+00  0.4025E-01
     10.227  0.1294E+00  0.1162E+00  0.4349E-01
     10.325  0.1326E+00  0.1203E+00  0.4825E-01
     10.422  0.1548E+00  0.1454E+00  0.6400E-01
     10.520  0.1293E+00  0.1187E+00  0.5587E-01
     10.617  0.1403E+00  0.1345E+00  0.6562E-01
     10.714  0.1813E+00  0.1865E+00  0.9583E-01
     10.812  0.1556E+00  0.1199E+00  0.4931E-01
     10.909  0.1597E+00  0.1200E+00  0.5045E-01
     11.006  0.1481E+00  0.1121E+00  0.4819E-01
     11.104  0.1359E+00  0.1040E+00  0.4570E-01
     11.201  0.1578E+00  0.1341E+00  0.6200E-01
     11.298  0.1368E+00  0.1110E+00  0.5203E-01
     11.396  0.1121E+00  0.8482E-01  0.4040E-01
     11.493  0.1004E+00  0.7452E-01  0.3577E-01
     11.591  0.8809E-01  0.6384E-01  0.3093E-01
     11.688  0.7529E-01  0.5277E-01  0.2588E-01
     11.785  0.7193E-01  0.4503E-01  0.2265E-01
     11.883  0.4739E-01  0.2831E-01  0.1458E-01
     11.980  0.9765E-01  0.4821E-01  0.4033E-01
     12.077  0.1757E+00  0.8852E-01  0.7424E-01
     12.175  0.1607E+00  0.8877E-01  0.6858E-01
     12.272  0.1638E+00  0.9411E-01  0.7058E-01
     12.369  0.1633E+00  0.9662E-01  0.7034E-01
     12.467  0.1607E+00  0.9767E-01  0.6880E-01
     12.564  0.1795E+00  0.1178E+00  0.7802E-01
     12.661  0.3283E+00  0.2041E+00  0.1268E+00
     12.759  0.2856E+00  0.1815E+00  0.1139E+00
     12.856  0.3106E-01  0.5110E-01  0.2082E-01
     12.954  0.4019E-01  0.5592E-01  0.2292E-01
     13.051  0.1200E+00  0.1118E+00  0.4764E-01
     13.148  0.2671E+00  0.2038E+00  0.9349E-01
     13.246  0.4845E+00  0.3126E+00  0.1565E+00
     13.343  0.4904E+00  0.2724E+00  0.1583E+00
     13.440  0.4992E+00  0.2387E+00  0.1603E+00
     13.538  0.6657E-01  0.8500E-01  0.3622E-01
     13.635  0.3920E-01  0.6676E-01  0.2107E-01
     13.732  0.2942E-01  0.5512E-01  0.1670E-01
     13.830  0.2112E-01  0.4460E-01  0.1295E-01
     13.927  0.1396E-01  0.3466E-01  0.9608E-02
     14.024  0.6744E-02  0.3008E-01  0.6326E-02
     14.122  0.5373E-02  0.2534E-01  0.5160E-02
     14.219  0.6607E-01  0.1632E+00  0.5842E-01
     14.317  0.3071E-01  0.1039E+00  0.3723E-01
     14.414  0.4125E-01  0.1265E+00  0.4782E-01
     14.511  0.5269E-01  0.1530E+00  0.6068E-01
     14.609  0.5268E-01  0.1788E+00  0.7172E-01
     14.706  0.5972E-01  0.2266E+00  0.8693E-01
     14.803  0.1053E+00  0.4144E+00  0.1598E+00
     14.901  0.8067E-01  0.3709E+00  0.1304E+00
     14.998  0.8733E-01  0.4533E+00  0.1471E+00
     15.095  0.8001E-01  0.4613E+00  0.1425E+00
     15.193  0.7798E-01  0.4806E+00  0.1401E+00
     15.290  0.8901E-01  0.6008E+00  0.1778E+00
     15.387  0.6262E-01  0.5180E+00  0.1185E+00
     15.485  0.4509E-01  0.4481E+00  0.8982E-01
     15.582  0.4493E-01  0.6566E+00  0.9292E-01
     15.680  0.3183E-01  0.4594E+00  0.7021E-01
     15.777  0.5589E-02  0.1298E+00  0.2462E-01
     15.874  0.8686E-03  0.2796E-01  0.5235E-02
     15.972  0.0000E+00  0.0000E+00  0.0000E+00
     16.069  0.0000E+00  0.0000E+00  0.0000E+00
     16.166  0.0000E+00  0.0000E+00  0.0000E+00
     16.264  0.0000E+00  0.0000E+00  0.0000E+00
     16.361  0.0000E+00  0.0000E+00  0.0000E+00
     16.458  0.0000E+00  0.0000E+00  0.0000E+00
     16.556  0.0000E+00  0.0000E+00  0.0000E+00
     16.653  0.0000E+00  0.0000E+00  0.0000E+00
     16.751  0.0000E+00  0.0000E+00  0.0000E+00
     16.848  0.0000E+00  0.0000E+00  0.0000E+00
     16.945  0.0000E+00  0.0000E+00  0.0000E+00
     17.043  0.0000E+00  0.0000E+00  0.0000E+00
     17.140  0.0000E+00  0.0000E+00  0.0000E+00
     17.237  0.0000E+00  0.0000E+00  0.0000E+00
     17.23730260    -11.97026041  301      5.18661417      1.00000000
    -11.970  0.0000E+00  0.0000E+00  0.0000E+00
    -11.873  0.0000E+00  0.0000E+00  0.0000E+00
    -11.776  0.0000E+00  0.0000E+00  0.0000E+00
    -11.678  0.0000E+00  0.0000E+00  0.0000E+00
    -11.581  0.0000E+00  0.0000E+00  0.0000E+00
    -11.483  0.0000E+00  0.0000E+00  0.0000E+00
    -11.386  0.0000E+00  0.0000E+00  0.0000E+00
    -11.289  0.0000E+00  0.0000E+00  0.0000E+00
    -11.191  0.0000E+00  0.0000E+00  0.0000E+00
    -11.094  0.0000E+00  0.0000E+00  0.0000E+00
    -10.997  0.0000E+00  0.0000E+00  0.0000E+00
    -10.899  0.0000E+00  0.0000E+00  0.0000E+00
    -10.802  0.0000E+00  0.0000E+00  0.0000E+00
    -10.705  0.0000E+00  0.0000E+00  0.0000E+00
    -10.607  0.5545E-02  0.2167E-03  0.9834E-03
    -10.510  0.2626E-01  0.1283E-02  0.6088E-02
    -10.413  0.5500E-01  0.3040E-02  0.1471E-01
    -10.315  0.6407E-01  0.6828E-02  0.4224E-01
    -10.218  0.8875E-01  0.1171E-01  0.7755E-01
    -10.120  0.8999E-01  0.1585E-01  0.1173E+00
    -10.023  0.9774E-01  0.2270E-01  0.1897E+00
     -9.926  0.1278E+00  0.4358E-01  0.4278E+00
     -9.828  0.1823E+00  0.9430E-01  0.1062E+01
     -9.731  0.2088E+00  0.1918E+00  0.2466E+01
     -9.634  0.8670E-01  0.2614E+00  0.3704E+01
     -9.536  0.0000E+00  0.0000E+00  0.0000E+00
     -9.439  0.0000E+00  0.0000E+00  0.0000E+00
     -9.342  0.0000E+00  0.0000E+00  0.0000E+00
     -9.244  0.0000E+00  0.0000E+00  0.0000E+00
     -9.147  0.0000E+00  0.0000E+00  0.0000E+00
     -9.050  0.0000E+00  0.0000E+00  0.0000E+00
     -8.952  0.0000E+00  0.0000E+00  0.0000E+00
     -8.855  0.0000E+00  0.0000E+00  0.0000E+00
     -8.757  0.0000E+00  0.0000E+00  0.0000E+00
     -8.660  0.0000E+00  0.0000E+00  0.0000E+00
     -8.563  0.0000E+00  0.0000E+00  0.0000E+00
     -8.465  0.0000E+00  0.0000E+00  0.0000E+00
     -8.368  0.0000E+00  0.0000E+00  0.0000E+00
     -8.271  0.0000E+00  0.0000E+00  0.0000E+00
     -8.173  0.4033E-02  0.4300E-02  0.9072E+01
     -8.076  0.4730E-01  0.2901E-01  0.5012E+02
     -7.979  0.3479E-01  0.1119E-01  0.2364E+02
     -7.881  0.3072E-01  0.1504E-01  0.6044E+02
     -7.784  0.2801E-01  0.4689E-02  0.8040E+01
     -7.686  0.2437E-01  0.4729E-02  0.5971E+00
     -7.589  0.2610E-01  0.5909E-02  0.5201E+00
     -7.492  0.2854E-01  0.7550E-02  0.4550E+00
     -7.394  0.3402E-01  0.1025E-01  0.4745E+00
     -7.297  0.3475E-01  0.1249E-01  0.4501E+00
     -7.200  0.3776E-01  0.1517E-01  0.4794E+00
     -7.102  0.4117E-01  0.1811E-01  0.5197E+00
     -7.005  0.4464E-01  0.2130E-01  0.5616E+00
     -6.908  0.4816E-01  0.2473E-01  0.6052E+00
     -6.810  0.6912E-01  0.4127E-01  0.8714E+00
     -6.713  0.6261E-01  0.4632E-01  0.8405E+00
     -6.616  0.5122E-01  0.4809E-01  0.7553E+00
     -6.518  0.3931E-01  0.4525E-01  0.6404E+00
     -6.421  0.3618E-01  0.4957E-01  0.6504E+00
     -6.323  0.4135E-01  0.8772E-01  0.1003E+01
     -6.226  0.2754E-01  0.7815E-01  0.8404E+00
     -6.129  0.1850E-01  0.8507E-01  0.8441E+00
     -6.031  0.0000E+00  0.0000E+00  0.0000E+00
     -5.934  0.0000E+00  0.0000E+00  0.0000E+00
     -5.837  0.0000E+00  0.0000E+00  0.0000E+00
     -5.739  0.0000E+00  0.0000E+00  0.0000E+00
     -5.642  0.0000E+00  0.0000E+00  0.0000E+00
     -5.545  0.0000E+00  0.0000E+00  0.0000E+00
     -5.447  0.0000E+00  0.0000E+00  0.0000E+00
     -5.350  0.0000E+00  0.0000E+00  0.0000E+00
     -5.253  0.0000E+00  0.0000E+00  0.0000E+00
     -5.155  0.0000E+00  0.0000E+00  0.0000E+00
     -5.058  0.0000E+00  0.0000E+00  0.0000E+00
     -4.960  0.0000E+00  0.0000E+00  0.0000E+00
     -4.863  0.0000E+00  0.0000E+00  0.0000E+00
     -4.766  0.0000E+00  0.0000E+00  0.0000E+00
     -4.668  0.0000E+00  0.0000E+00  0.0000E+00
     -4.571  0.0000E+00  0.0000E+00  0.0000E+00
     -4.474  0.0000E+00  0.0000E+00  0.0000E+00
     -4.376  0.0000E+00  0.0000E+00  0.0000E+00
     -4.279  0.0000E+00  0.0000E+00  0.0000E+00
     -4.182  0.0000E+00  0.0000E+00  0.0000E+00
     -4.084  0.0000E+00  0.0000E+00  0.0000E+00
     -3.987  0.0000E+00  0.0000E+00  0.0000E+00
     -3.890  0.0000E+00  0.0000E+00  0.0000E+00
     -3.792  0.0000E+00  0.0000E+00  0.0000E+00
     -3.695  0.0000E+00  0.0000E+00  0.0000E+00
     -3.597  0.0000E+00  0.0000E+00  0.0000E+00
     -3.500  0.0000E+00  0.0000E+00  0.0000E+00
     -3.403  0.0000E+00  0.0000E+00  0.0000E+00
     -3.305  0.0000E+00  0.0000E+00  0.0000E+00