Automatically generated mesh
      14
Reciprocal lattice
    0.00000000000000    0.00000000000000    0.12500000000000             2
    0.16666666666666   -0.00000000000000    0.12500000000000            12
    0.33333333333334   -0.00000000000000    0.12500000000000            12
    0.50000000000000   -0.00000000000000    0.12500000000000             6
    0.16666666666666    0.16666666666666    0.12500000000000            12
    0.33333333333334    0.16666666666666    0.12500000000000            24
    0.33333333333334    0.33333333333334    0.12500000000000             4
    0.00000000000000    0.00000000000000    0.37500000000000             2
    0.16666666666666   -0.00000000000000    0.37500000000000            12
    0.33333333333334   -0.00000000000000    0.37500000000000            12
    0.50000000000000   -0.00000000000000    0.37500000000000             6
    0.16666666666666    0.16666666666666    0.37500000000000            12
    0.33333333333334    0.16666666666666    0.37500000000000            24
    0.33333333333334    0.33333333333334    0.37500000000000             4
Tetrahedra
       109    0.00115740740741
        12         6         6         7         7
        24         6         6         6         7
        12         9        10        12        12
         6         9         9        12        12
        12         9         9         9        12
        12         9        10        10        12
        12         9         9        10        12
        12         4         6         6         6
         6         4         4         6         6
        12        10        11        13        13
        12        10        12        13        13
        12        10        12        12        13
        12        10        11        11        13
        12        10        10        11        13
        12        10        10        12        13
        12         3         3         4         6
        12         3         4         6         6
        12         3         4         4         6
        12        11        13        13        13
         6        11        11        13        13
         6         5         5         6         6
        12         3         5         5         6
        12         3         3         5         6
        12         5         6         6         6
        12         3         5         6         6
        12         8         9         9         9
         6         8         8         9         9
        16         6         6         7        13
         8         5         6         6        13
         4         5         6        12        13
         8         6         7        13        14
        16         6        13        13        14
         8         6        12        13        13
         8         3         9        10        12
         4         3         5         9        12
         8         2         3         5         9
         8         6         7        13        13
         8         7        13        13        14
         8         6        10        12        13
         4         3         6        10        12
         4         6         6        12        13
         4         5         6         6        12
         8         3         5         6        12
         8         2         2         5         9
         4         2         5         9         9
         4         3         5         9        10
         8         5         9        10        12
         4         5         9         9        12
         8         3        10        12        13
         4         3         6        12        13
         4         2         3         9        12
         8         2         3         5        12
         8         6         6         7        14
         8         6         6        13        14
         8         6        10        11        13
         4         5         6        10        12
         4         4         6        10        11
         8         3         4         6        10
         8         3         5         6        10
         8         4         6         6        13
         4         4         6        11        13
         8         6        11        13        13
         4         6         6        11        13
         4         3         6        10        11
         8         3         4         6        11
         4         4         6         6        11
         4         4         6        10        13
         8         4        10        11        13
         8         5        10        12        13
         4         5         6        10        13
         4         2         5         9        10
         8         2         3         5        10
         8         2         8         9         9
         8         2         9         9        12
         4         2         5         9        12
         4         1         2         8         9
         8         1         2         2         9
         4         2         2         8         9
         4         1         2         2         8
         8         3         4         6        13
         4         3         4        10        13
         4         4         6        13        13
         4         4        11        13        13
        12         2         3         3         5
        12         2         3         5         5
        12         2         2         3         5
        24        13        13        13        14
        12        12        13        13        13
         6        12        12        13        13
        12        13        13        14        14
         6         2         2         5         5
        12         2         2         2         5
         8         3         5         6        13
         4         5         6        13        13
         4         3         5        10        13
         4         5        12        13        13
         4         3         6        11        13
         8         3        10        11        13
         4         3         4        11        13
         4         3         5        12        13
         8         2         9        10        12
         4         2         3        10        12
         4         2         2         9        12
         4         2         2         5        12
         4         1         8         9         9
         4         1         2         9         9
        12         1         2         2         2
         6         1         1         2         2
         4         2         5        10        12
