 vasp.6.3.1 04May22 (build Jun 07 2022 20:23:04) complex                        
  
 executed on             LinuxIFC date 2024.04.20  16:34:20
 running on   32 total cores
 distrk:  each k-point on    8 cores,    4 groups
 distr:  one band on NCORE=   1 cores,    8 groups


--------------------------------------------------------------------------------------------------------


 INCAR:
   ALGO = Normal
   PREC = Normal
   LREAL = False
   EDIFF = 1e-07
   ENCUT = 400.0
   LASPH = True
   NELM = 100
   ISIF = 3
   IBRION = 2
   EDIFFG = -0.005
   NSW = 20
   ISMEAR = -5
   SIGMA = 0.1
   LWAVE = False
   LCHARG = False
   LORBIT = 10
   KPAR = 4

 POTCAR:    PAW_PBE Ga_d 06Jul2010                
 POTCAR:    PAW_PBE N 08Apr2002                   
 -----------------------------------------------------------------------------
|                                                                             |
|           W    W    AA    RRRRR   N    N  II  N    N   GGGG   !!!           |
|           W    W   A  A   R    R  NN   N  II  NN   N  G    G  !!!           |
|           W    W  A    A  R    R  N N  N  II  N N  N  G       !!!           |
|           W WW W  AAAAAA  RRRRR   N  N N  II  N  N N  G  GGG   !            |
|           WW  WW  A    A  R   R   N   NN  II  N   NN  G    G                |
|           W    W  A    A  R    R  N    N  II  N    N   GGGG   !!!           |
|                                                                             |
|     For optimal performance we recommend to set                             |
|       NCORE = 2 up to number-of-cores-per-socket                            |
|     NCORE specifies how many cores store one orbital (NPAR=cpu/NCORE).      |
|     This setting can greatly improve the performance of VASP for DFT.       |
|     The default, NCORE=1 might be grossly inefficient on modern             |
|     multi-core architectures or massively parallel machines. Do your        |
|     own testing! More info at https://www.vasp.at/wiki/index.php/NCORE      |
|     Unfortunately you need to use the default for GW and RPA                |
|     calculations (for HF NCORE is supported but not extensively tested      |
|     yet).                                                                   |
|                                                                             |
 -----------------------------------------------------------------------------

 POTCAR:    PAW_PBE Ga_d 06Jul2010                
   SHA256 =  a60ddf36e14f00ea098d9e3914b3745f1b7105e68786148f49ae384e44b4226c Ga_d/POTCAR           
   COPYR  = (c) Copyright 06Jul2010 Georg Kresse                                                    
   COPYR  = This file is part of the software VASP. Any use, copying, and all other rights are regul
   COPYR  = If you do not have a valid VASP license, you may not use, copy or distribute this file. 
   VRHFIN =Ga: s2p1                                                                                 
   LEXCH  = PE                                                                                      
   EATOM  =  2148.8298 eV,  157.9345 Ry                                                             
                                                                                                    
   TITEL  = PAW_PBE Ga_d 06Jul2010                                                                  
   LULTRA =        F    use ultrasoft PP ?                                                          
   IUNSCR =        1    unscreen: 0-lin 1-nonlin 2-no                                               
   RPACOR =    1.700    partial core radius                                                         
   POMASS =   69.723; ZVAL   =   13.000    mass and valenz                                          
   RCORE  =    2.300    outmost cutoff radius                                                       
   RWIGS  =    2.300; RWIGS  =    1.217    wigner-seitz radius (au A)                               
   ENMAX  =  282.691; ENMIN  =  212.018 eV                                                          
   ICORE  =        3    local potential                                                             
   LCOR   =        T    correct aug charges                                                         
   LPAW   =        T    paw PP                                                                      
   EAUG   =  490.690                                                                                
   DEXC   =    0.000                                                                                
   RMAX   =    2.341    core radius for proj-oper                                                   
   RAUG   =    1.300    factor for augmentation sphere                                              
   RDEP   =    2.413    radius for radial grids                                                     
   RDEPT  =    1.856    core radius for aug-charge                                                  
                                                                                                    
   Atomic configuration                                                                             
    9 entries                                                                                       
     n  l   j            E        occ.                                                              
     1  0  0.50    -10228.7831   2.0000                                                             
     2  0  0.50     -1262.1604   2.0000                                                             
     2  1  1.50     -1098.6333   6.0000                                                             
     3  0  0.50      -148.1110   2.0000                                                             
     3  1  1.50       -98.8436   6.0000                                                             
     3  2  2.50       -19.1549  10.0000                                                             
     4  0  0.50        -8.9483   2.0000                                                             
     4  1  0.50        -2.5791   1.0000                                                             
     4  3  2.50        -2.7416   0.0000                                                             
   Description                                                                                      
     l       E           TYP  RCUT    TYP  RCUT                                                     
     2    -19.1549037     23  2.300                                                                 
     2     -5.4423304     23  2.300                                                                 
     0     -8.9483111     23  2.300                                                                 
     0     68.0291300     23  2.300                                                                 
     1     -2.5790802     23  2.100                                                                 
     1     81.6349560     23  2.300                                                                 
     3      6.8029130     23  2.300                                                                 
  local pseudopotential read in
  partial core-charges read in
  partial kinetic energy density read in
  atomic valenz-charges read in
  non local Contribution for L=           2  read in
    real space projection operators read in
  non local Contribution for L=           2  read in
    real space projection operators read in
  non local Contribution for L=           0  read in
    real space projection operators read in
  non local Contribution for L=           0  read in
    real space projection operators read in
  non local Contribution for L=           1  read in
    real space projection operators read in
  non local Contribution for L=           1  read in
    real space projection operators read in
    PAW grid and wavefunctions read in
 
   number of l-projection  operators is LMAX  =           6
   number of lm-projection operators is LMMAX =          18
 
 POTCAR:    PAW_PBE N 08Apr2002                   
   SHA256 =  e053789ff3a61a86a1b75d8a110fcc91f86041011e7b0817c7c99e4e8a6349d7 N/POTCAR              
   COPYR  = (c) Copyright 08Apr2002 Georg Kresse                                                    
   COPYR  = This file is part of the software VASP. Any use, copying, and all other rights are regul
   COPYR  = If you do not have a valid VASP license, you may not use, copy or distribute this file. 
   VRHFIN =N: s2p3                                                                                  
   LEXCH  = PE                                                                                      
   EATOM  =   264.5486 eV,   19.4438 Ry                                                             
                                                                                                    
   TITEL  = PAW_PBE N 08Apr2002                                                                     
   LULTRA =        F    use ultrasoft PP ?                                                          
   IUNSCR =        1    unscreen: 0-lin 1-nonlin 2-no                                               
   RPACOR =    1.200    partial core radius                                                         
   POMASS =   14.001; ZVAL   =    5.000    mass and valenz                                          
   RCORE  =    1.500    outmost cutoff radius                                                       
   RWIGS  =    1.400; RWIGS  =    0.741    wigner-seitz radius (au A)                               
   ENMAX  =  400.000; ENMIN  =  300.000 eV                                                          
   ICORE  =        2    local potential                                                             
   LCOR   =        T    correct aug charges                                                         
   LPAW   =        T    paw PP                                                                      
   EAUG   =  627.112                                                                                
   DEXC   =    0.000                                                                                
   RMAX   =    1.529    core radius for proj-oper                                                   
   RAUG   =    1.300    factor for augmentation sphere                                              
   RDEP   =    1.514    radius for radial grids                                                     
   RDEPT  =    1.338    core radius for aug-charge                                                  
                                                                                                    
   Atomic configuration                                                                             
    4 entries                                                                                       
     n  l   j            E        occ.                                                              
     1  0  0.50      -384.7179   2.0000                                                             
     2  0  0.50       -18.5828   2.0000                                                             
     2  1  0.50        -7.0898   3.0000                                                             
     3  2  1.50        -6.8029   0.0000                                                             
   Description                                                                                      
     l       E           TYP  RCUT    TYP  RCUT                                                     
     0    -18.5828119     23  1.200                                                                 
     0    -13.5018863     23  1.200                                                                 
     1     -7.0897853     23  1.500                                                                 
     1      9.5240782     23  1.500                                                                 
     2     -6.8029130      7  1.500                                                                 
  local pseudopotential read in
  partial core-charges read in
  partial kinetic energy density read in
  atomic valenz-charges read in
  non local Contribution for L=           0  read in
    real space projection operators read in
  non local Contribution for L=           0  read in
    real space projection operators read in
  non local Contribution for L=           1  read in
    real space projection operators read in
  non local Contribution for L=           1  read in
    real space projection operators read in
    PAW grid and wavefunctions read in
 
   number of l-projection  operators is LMAX  =           4
   number of lm-projection operators is LMMAX =           8
 
  PAW_PBE Ga_d 06Jul2010                :
 energy of atom  1       EATOM=-2148.8298
 kinetic energy error for atom=    0.0102 (will be added to EATOM!!)
  PAW_PBE N 08Apr2002                   :
 energy of atom  2       EATOM= -264.5486
 kinetic energy error for atom=    0.0736 (will be added to EATOM!!)
 
 
 POSCAR: Ga2 N2
  positions in direct lattice
  No initial velocities read in
 exchange correlation table for  LEXCH =        8
   RHO(1)=    0.500       N(1)  =     2000
   RHO(2)=  100.500       N(2)  =     4000

 VTST: version 4.2, (08/11/21)

 CHAIN: initializing optimizer
 
 OPT: Using VASP Conjugate-Gradient optimizer
 CHAIN: Read ICHAIN            0
 
 POSCAR: Ga2 N2
  positions in direct lattice
  No initial velocities read in
 


--------------------------------------------------------------------------------------------------------


 ion  position               nearest neighbor table
   1  0.667  0.333  0.499-   4 1.95   4 1.95   4 1.95   3 1.96
   2  0.333  0.667  0.999-   3 1.95   3 1.95   3 1.95   4 1.96
   3  0.667  0.333  0.876-   2 1.95   2 1.95   2 1.95   1 1.96
   4  0.333  0.667  0.376-   1 1.95   1 1.95   1 1.95   2 1.96
 
  LATTYP: Found a hexagonal cell.
 ALAT       =     3.1889304035
 C/A-ratio  =     1.6282441424
  
  Lattice vectors:
  
 A1 = (   3.1889304035,   0.0000000000,   0.0000000000)
 A2 = (  -1.5944652018,   2.7616947404,   0.0000000000)
 A3 = (   0.0000000000,   0.0000000000,   5.1923572500)


Analysis of symmetry for initial positions (statically):
=====================================================================
 Subroutine PRICEL returns:
 Original cell was already a primitive cell.
 

 Routine SETGRP: Setting up the symmetry group for a 
 hexagonal supercell.


 Subroutine GETGRP returns: Found 12 space group operations
 (whereof  6 operations were pure point group operations)
 out of a pool of 24 trial point group operations.


The static configuration has the point symmetry C_3v.
 The point group associated with its full space group is C_6v.


Analysis of symmetry for dynamics (positions and initial velocities):
=====================================================================
 Subroutine PRICEL returns:
 Original cell was already a primitive cell.
 

 Routine SETGRP: Setting up the symmetry group for a 
 hexagonal supercell.


 Subroutine GETGRP returns: Found 12 space group operations
 (whereof  6 operations were pure point group operations)
 out of a pool of 24 trial point group operations.


The dynamic configuration has the point symmetry C_3v.
 The point group associated with its full space group is C_6v.


 Subroutine INISYM returns: Found 12 space group operations
 (whereof  6 operations are pure point group operations),
 and found     1 'primitive' translations


----------------------------------------------------------------------------------------

                                     Primitive cell                                     

  volume of cell :      45.7283

  direct lattice vectors                    reciprocal lattice vectors
     3.188930404  0.000000000  0.000000000     0.313584768  0.181048250  0.000000000
    -1.594465202  2.761694740  0.000000000     0.000000000  0.362096500  0.000000000
     0.000000000  0.000000000  5.192357250     0.000000000  0.000000000  0.192590754

  length of vectors
     3.188930404  3.188930404  5.192357250     0.362096500  0.362096500  0.192590754

  position of ions in fractional coordinates (direct lattice)
     0.666666667  0.333333333  0.499083710
     0.333333333  0.666666667  0.999083710
     0.666666667  0.333333333  0.875916290
     0.333333333  0.666666667  0.375916290

  ion indices of the primitive-cell ions
   primitive index   ion index
                 1           1
                 2           2
                 3           3
                 4           4

----------------------------------------------------------------------------------------

 
 
 KPOINTS: Num irrep kpoints: 14                   

Automatic generation of k-mesh.
 Grid dimensions read from file:
 generate k-points for:    6    6    4

 Generating k-lattice:

  Cartesian coordinates                     Fractional coordinates (reciprocal lattice)
     0.052264128  0.030174708  0.000000000     0.166666667 -0.000000000  0.000000000
     0.000000000  0.060349417  0.000000000     0.000000000  0.166666667  0.000000000
     0.000000000  0.000000000  0.048147689     0.000000000  0.000000000  0.250000000

  Length of vectors
     0.060349417  0.060349417  0.048147689

  Shift w.r.t. Gamma in fractional coordinates (k-lattice)
     0.000000000  0.000000000  0.500000000

 TETIRR: Found    109 inequivalent tetrahedra from      864
 
 Subroutine IBZKPT returns following result:
 ===========================================
 
 Found     14 irreducible k-points:
 
 Following reciprocal coordinates:
            Coordinates               Weight
  0.000000  0.000000  0.125000      2.000000
  0.166667 -0.000000  0.125000     12.000000
  0.333333 -0.000000  0.125000     12.000000
  0.500000 -0.000000  0.125000      6.000000
  0.166667  0.166667  0.125000     12.000000
  0.333333  0.166667  0.125000     24.000000
  0.333333  0.333333  0.125000      4.000000
  0.000000  0.000000  0.375000      2.000000
  0.166667 -0.000000  0.375000     12.000000
  0.333333 -0.000000  0.375000     12.000000
  0.500000 -0.000000  0.375000      6.000000
  0.166667  0.166667  0.375000     12.000000
  0.333333  0.166667  0.375000     24.000000
  0.333333  0.333333  0.375000      4.000000
 
 Following cartesian coordinates:
            Coordinates               Weight
  0.000000  0.000000  0.024074      2.000000
  0.052264  0.030175  0.024074     12.000000
  0.104528  0.060349  0.024074     12.000000
  0.156792  0.090524  0.024074      6.000000
  0.052264  0.090524  0.024074     12.000000
  0.104528  0.120699  0.024074     24.000000
  0.104528  0.181048  0.024074      4.000000
  0.000000  0.000000  0.072222      2.000000
  0.052264  0.030175  0.072222     12.000000
  0.104528  0.060349  0.072222     12.000000
  0.156792  0.090524  0.072222      6.000000
  0.052264  0.090524  0.072222     12.000000
  0.104528  0.120699  0.072222     24.000000
  0.104528  0.181048  0.072222      4.000000
 


--------------------------------------------------------------------------------------------------------




 Dimension of arrays:
   k-points           NKPTS =     14   k-points in BZ     NKDIM =     14   number of bands    NBANDS=     24
   number of dos      NEDOS =    301   number of ions     NIONS =      4
   non local maximal  LDIM  =      6   non local SUM 2l+1 LMDIM =     18
   total plane-waves  NPLWV =   7168
   max r-space proj   IRMAX =      1   max aug-charges    IRDMAX=   6139
   dimension x,y,z NGX =    16 NGY =   16 NGZ =   28
   dimension x,y,z NGXF=    32 NGYF=   32 NGZF=   56
   support grid    NGXF=    32 NGYF=   32 NGZF=   56
   ions per type =               2   2
   NGX,Y,Z   is equivalent  to a cutoff of   8.34,  8.34,  8.96 a.u.
   NGXF,Y,Z  is equivalent  to a cutoff of  16.68, 16.68, 17.93 a.u.

 SYSTEM =  unknown system                          
 POSCAR =  Ga2 N2                                  

 Startparameter for this run:
   NWRITE =      2    write-flag & timer
   PREC   = normal    normal or accurate (medium, high low for compatibility)
   ISTART =      0    job   : 0-new  1-cont  2-samecut
   ICHARG =      2    charge: 1-file 2-atom 10-const
   ISPIN  =      1    spin polarized calculation?
   LNONCOLLINEAR =      F non collinear calculations
   LSORBIT =      F    spin-orbit coupling
   INIWAV =      1    electr: 0-lowe 1-rand  2-diag
   LASPH  =      T    aspherical Exc in radial PAW
 Electronic Relaxation 1
   ENCUT  =  400.0 eV  29.40 Ry    5.42 a.u.   5.20  5.20  8.47*2*pi/ulx,y,z
   ENINI  =  400.0     initial cutoff
   ENAUG  =  627.1 eV  augmentation charge cutoff
   NELM   =    100;   NELMIN=  2; NELMDL= -5     # of ELM steps 
   EDIFF  = 0.1E-06   stopping-criterion for ELM
   LREAL  =      F    real-space projection
   NLSPLINE    = F    spline interpolate recip. space projectors
   LCOMPAT=      F    compatible to vasp.4.4
   GGA_COMPAT  = T    GGA compatible to vasp.4.4-vasp.4.6
   LMAXPAW     = -100 max onsite density
   LMAXMIX     =    2 max onsite mixed and CHGCAR
   VOSKOWN=      0    Vosko Wilk Nusair interpolation
   ROPT   =    0.00000   0.00000
 Ionic relaxation
   EDIFFG = -.5E-02   stopping-criterion for IOM
   NSW    =     20    number of steps for IOM
   NBLOCK =      1;   KBLOCK =     20    inner block; outer block 
   IBRION =      2    ionic relax: 0-MD 1-quasi-New 2-CG
   NFREE  =      1    steps in history (QN), initial steepest desc. (CG)
   ISIF   =      3    stress and relaxation
   IWAVPR =     11    prediction:  0-non 1-charg 2-wave 3-comb
   ISYM   =      2    0-nonsym 1-usesym 2-fastsym
   LCORR  =      T    Harris-Foulkes like correction to forces

   POTIM  = 0.5000    time-step for ionic-motion
   TEIN   =    0.0    initial temperature
   TEBEG  =    0.0;   TEEND  =   0.0 temperature during run
   SMASS  =  -3.00    Nose mass-parameter (am)
   estimated Nose-frequenzy (Omega)   =  0.10E-29 period in steps = 0.13E+47 mass=  -0.232E-27a.u.
   SCALEE = 1.0000    scale energy and forces
   NPACO  =    256;   APACO  = 10.0  distance and # of slots for P.C.
   PSTRESS=    0.0 pullay stress

  Mass of Ions in am
   POMASS =  69.72 14.00
  Ionic Valenz
   ZVAL   =  13.00  5.00
  Atomic Wigner-Seitz radii
   RWIGS  =  -1.00 -1.00
  virtual crystal weights 
   VCA    =   1.00  1.00
   NELECT =      36.0000    total number of electrons
   NUPDOWN=      -1.0000    fix difference up-down

 DOS related values:
   EMIN   =  10.00;   EMAX   =-10.00  energy-range for DOS
   EFERMI =   0.00
   ISMEAR =    -5;   SIGMA  =   0.10  broadening in eV -4-tet -1-fermi 0-gaus

 Electronic relaxation 2 (details)
   IALGO  =     38    algorithm
   LDIAG  =      T    sub-space diagonalisation (order eigenvalues)
   LSUBROT=      F    optimize rotation matrix (better conditioning)
   TURBO    =      0    0=normal 1=particle mesh
   IRESTART =      0    0=no restart 2=restart with 2 vectors
   NREBOOT  =      0    no. of reboots
   NMIN     =      0    reboot dimension
   EREF     =   0.00    reference energy to select bands
   IMIX   =      4    mixing-type and parameters
     AMIX     =   0.40;   BMIX     =  1.00
     AMIX_MAG =   1.60;   BMIX_MAG =  1.00
     AMIN     =   0.10
     WC   =   100.;   INIMIX=   1;  MIXPRE=   1;  MAXMIX= -45

 Intra band minimization:
   WEIMIN = 0.0010     energy-eigenvalue tresh-hold
   EBREAK =  0.10E-08  absolut break condition
   DEPER  =   0.30     relativ break condition  

   TIME   =   0.40     timestep for ELM

  volume/ion in A,a.u.               =      11.43        77.15
  Fermi-wavevector in a.u.,A,eV,Ry     =   1.511636  2.856578 31.089905  2.285044
  Thomas-Fermi vector in A             =   2.621667
 
 Write flags
   LWAVE        =      F    write WAVECAR
   LDOWNSAMPLE  =      F    k-point downsampling of WAVECAR
   LCHARG       =      F    write CHGCAR
   LVTOT        =      F    write LOCPOT, total local potential
   LVHAR        =      F    write LOCPOT, Hartree potential only
   LELF         =      F    write electronic localiz. function (ELF)
   LORBIT       =     10    0 simple, 1 ext, 2 COOP (PROOUT), +10 PAW based schemes


 Dipole corrections
   LMONO  =      F    monopole corrections only (constant potential shift)
   LDIPOL =      F    correct potential (dipole corrections)
   IDIPOL =      0    1-x, 2-y, 3-z, 4-all directions 
   EPSILON=  1.0000000 bulk dielectric constant

 Exchange correlation treatment:
   GGA     =    --    GGA type
   LEXCH   =     8    internal setting for exchange type
   LIBXC   =     F    Libxc                    
   VOSKOWN =     0    Vosko Wilk Nusair interpolation
   LHFCALC =     F    Hartree Fock is set to
   LHFONE  =     F    Hartree Fock one center treatment
   AEXX    =    0.0000 exact exchange contribution

 Linear response parameters
   LEPSILON=     F    determine dielectric tensor
   LRPA    =     F    only Hartree local field effects (RPA)
   LNABLA  =     F    use nabla operator in PAW spheres
   LVEL    =     F    velocity operator in full k-point grid
   CSHIFT  =0.1000    complex shift for real part using Kramers Kronig
   OMEGAMAX=  -1.0    maximum frequency
   DEG_THRESHOLD= 0.2000000E-02 threshold for treating states as degnerate
   RTIME   =   -0.100 relaxation time in fs
  (WPLASMAI=    0.000 imaginary part of plasma frequency in eV, 0.658/RTIME)
   DFIELD  = 0.0000000 0.0000000 0.0000000 field for delta impulse in time
 
  Optional k-point grid parameters
   LKPOINTS_OPT  =     F    use optional k-point grid
   KPOINTS_OPT_MODE=     1    mode for optional k-point grid
 
 Orbital magnetization related:
   ORBITALMAG=     F  switch on orbital magnetization
   LCHIMAG   =     F  perturbation theory with respect to B field
   DQ        =  0.001000  dq finite difference perturbation B field
   LLRAUG    =     F  two centre corrections for induced B field



--------------------------------------------------------------------------------------------------------


 conjugate gradient relaxation of ions
 charge density and potential will be updated during run
 non-spin polarized calculation
 Variant of blocked Davidson
 Davidson routine will perform the subspace rotation
 perform sub-space diagonalisation
    after iterative eigenvector-optimisation
 modified Broyden-mixing scheme, WC =      100.0
 initial mixing is a Kerker type mixing with AMIX =  0.4000 and BMIX =      1.0000
 Hartree-type preconditioning will be used
 using additional bands            6
 reciprocal scheme for non local part
 use partial core corrections
 calculate Harris-corrections to forces 
   (improved forces if not selfconsistent)
 use gradient corrections 
 use of overlap-Matrix (Vanderbilt PP)
 Fermi weights with tetrahedron method with Bloechl corrections


--------------------------------------------------------------------------------------------------------


  energy-cutoff  :      400.00
  volume of cell :       45.73
      direct lattice vectors                 reciprocal lattice vectors
     3.188930404  0.000000000  0.000000000     0.313584768  0.181048250  0.000000000
    -1.594465202  2.761694740  0.000000000     0.000000000  0.362096500  0.000000000
     0.000000000  0.000000000  5.192357250     0.000000000  0.000000000  0.192590754

  length of vectors
     3.188930404  3.188930404  5.192357250     0.362096500  0.362096500  0.192590754


 
 k-points in units of 2pi/SCALE and weight: Num irrep kpoints: 14                   
   0.00000000  0.00000000  0.02407384       0.014
   0.05226413  0.03017471  0.02407384       0.083
   0.10452826  0.06034942  0.02407384       0.083
   0.15679238  0.09052413  0.02407384       0.042
   0.05226413  0.09052413  0.02407384       0.083
   0.10452826  0.12069883  0.02407384       0.167
   0.10452826  0.18104825  0.02407384       0.028
   0.00000000  0.00000000  0.07222153       0.014
   0.05226413  0.03017471  0.07222153       0.083
   0.10452826  0.06034942  0.07222153       0.083
   0.15679238  0.09052413  0.07222153       0.042
   0.05226413  0.09052413  0.07222153       0.083
   0.10452826  0.12069883  0.07222153       0.167
   0.10452826  0.18104825  0.07222153       0.028
 
 k-points in reciprocal lattice and weights: Num irrep kpoints: 14                   
   0.00000000  0.00000000  0.12500000       0.014
   0.16666667 -0.00000000  0.12500000       0.083
   0.33333333 -0.00000000  0.12500000       0.083
   0.50000000 -0.00000000  0.12500000       0.042
   0.16666667  0.16666667  0.12500000       0.083
   0.33333333  0.16666667  0.12500000       0.167
   0.33333333  0.33333333  0.12500000       0.028
   0.00000000  0.00000000  0.37500000       0.014
   0.16666667 -0.00000000  0.37500000       0.083
   0.33333333 -0.00000000  0.37500000       0.083
   0.50000000 -0.00000000  0.37500000       0.042
   0.16666667  0.16666667  0.37500000       0.083
   0.33333333  0.16666667  0.37500000       0.167
   0.33333333  0.33333333  0.37500000       0.028
 
 position of ions in fractional coordinates (direct lattice) 
   0.66666667  0.33333333  0.49908371
   0.33333333  0.66666667  0.99908371
   0.66666667  0.33333333  0.87591629
   0.33333333  0.66666667  0.37591629
 
 position of ions in cartesian coordinates  (Angst):
   1.59446520  0.92056491  2.59142092
  -0.00000000  1.84112983  5.18759954
   1.59446520  0.92056491  4.54807030
  -0.00000000  1.84112983  1.95189167
 


--------------------------------------------------------------------------------------------------------


 k-point   1 :   0.0000 0.0000 0.1250  plane waves:     827
 k-point   2 :   0.1667-0.0000 0.1250  plane waves:     828
 k-point   3 :   0.3333-0.0000 0.1250  plane waves:     835
 k-point   4 :   0.5000-0.0000 0.1250  plane waves:     838
 k-point   5 :   0.1667 0.1667 0.1250  plane waves:     821
 k-point   6 :   0.3333 0.1667 0.1250  plane waves:     836
 k-point   7 :   0.3333 0.3333 0.1250  plane waves:     831
 k-point   8 :   0.0000 0.0000 0.3750  plane waves:     821
 k-point   9 :   0.1667-0.0000 0.3750  plane waves:     832
 k-point  10 :   0.3333-0.0000 0.3750  plane waves:     837
 k-point  11 :   0.5000-0.0000 0.3750  plane waves:     826
 k-point  12 :   0.1667 0.1667 0.3750  plane waves:     832
 k-point  13 :   0.3333 0.1667 0.3750  plane waves:     830
 k-point  14 :   0.3333 0.3333 0.3750  plane waves:     816

 maximum and minimum number of plane-waves per node :       838      816

 maximum number of plane-waves:       838
 maximum index in each direction: 
   IXMAX=    5   IYMAX=    5   IZMAX=    8
   IXMIN=   -5   IYMIN=   -5   IZMIN=   -8


 serial   3D FFT for wavefunctions
 parallel 3D FFT for charge:
    minimum data exchange during FFTs selected (reduces bandwidth)


 total amount of memory used by VASP MPI-rank0    35080. kBytes
=======================================================================

   base      :      30000. kBytes
   nonl-proj :       3440. kBytes
   fftplans  :        274. kBytes
   grid      :        702. kBytes
   one-center:         62. kBytes
   wavefun   :        602. kBytes
 
     INWAV:  cpu time      0.0000: real time      0.0001
 Broyden mixing: mesh for mixing (old mesh)
   NGX = 11   NGY = 11   NGZ = 17
  (NGX  = 32   NGY  = 32   NGZ  = 56)
  gives a total of   2057 points

 initial charge density was supplied:
 charge density of overlapping atoms calculated
 number of electron      36.0000000 magnetization 
 keeping initial charge density in first step


--------------------------------------------------------------------------------------------------------


 Maximum index for augmentation-charges          699 (set IRDMAX)


--------------------------------------------------------------------------------------------------------


 First call to EWALD:  gamma=   0.496
 Maximum number of real-space cells 3x 3x 2
 Maximum number of reciprocal cells 3x 3x 4

    FEWALD:  cpu time      0.0010: real time      0.0010


--------------------------------------- Iteration      1(   1)  ---------------------------------------


    POTLOK:  cpu time      0.0037: real time      0.0071
    SETDIJ:  cpu time      0.1275: real time      0.1280
     EDDAV:  cpu time      0.0218: real time      0.0221
 BZINTS: Fermi energy:   20.928201;   36.000000 electrons
         Band energy: 0.981820E+02;  BLOECHL correction:   -0.347755
       DOS:  cpu time      0.0033: real time      0.0033
    --------------------------------------------
      LOOP:  cpu time      0.1564: real time      0.1605

 eigenvalue-minimisations  :   696
 total energy-change (2. order) : 0.2525001E+03  (-0.1556125E+04)
 number of electron      36.0000000 magnetization 
 augmentation part       36.0000000 magnetization 

 Free energy of the ion-electron system (eV)
  ---------------------------------------------------
  alpha Z        PSCENC =       197.48248217
  Ewald energy   TEWEN  =     -3172.53630689
  -Hartree energ DENC   =     -1156.54557726
  -exchange      EXHF   =         0.00000000
  -V(xc)+E(xc)   XCENC  =       128.81625065
  PAW double counting   =      3616.17691320    -4285.66495278
  entropy T*S    EENTRO =         0.00000000
  eigenvalues    EBANDS =        98.18201418
  atomic energy  EATOM  =      4826.58925392
  Solvation  Ediel_sol  =         0.00000000
  ---------------------------------------------------
  free energy    TOTEN  =       252.50007720 eV

  energy without entropy =      252.50007720  energy(sigma->0) =      252.50007720


--------------------------------------------------------------------------------------------------------




--------------------------------------- Iteration      1(   2)  ---------------------------------------


     EDDAV:  cpu time      0.0196: real time      0.0200
 BZINTS: Fermi energy:    7.152862;   36.000000 electrons
         Band energy:-0.151555E+03;  BLOECHL correction:    0.000000
       DOS:  cpu time      0.0021: real time      0.0021
    --------------------------------------------
      LOOP:  cpu time      0.0217: real time      0.0221

 eigenvalue-minimisations  :   760
 total energy-change (2. order) :-0.2497368E+03  (-0.2418238E+03)
 number of electron      36.0000000 magnetization 
 augmentation part       36.0000000 magnetization 

 Free energy of the ion-electron system (eV)
  ---------------------------------------------------
  alpha Z        PSCENC =       197.48248217
  Ewald energy   TEWEN  =     -3172.53630689
  -Hartree energ DENC   =     -1156.54557726
  -exchange      EXHF   =         0.00000000
  -V(xc)+E(xc)   XCENC  =       128.81625065
  PAW double counting   =      3616.17691320    -4285.66495278
  entropy T*S    EENTRO =         0.00000000
  eigenvalues    EBANDS =      -151.55478384
  atomic energy  EATOM  =      4826.58925392
  Solvation  Ediel_sol  =         0.00000000
  ---------------------------------------------------
  free energy    TOTEN  =         2.76327918 eV

  energy without entropy =        2.76327918  energy(sigma->0) =        2.76327918


--------------------------------------------------------------------------------------------------------




--------------------------------------- Iteration      1(   3)  ---------------------------------------


     EDDAV:  cpu time      0.0187: real time      0.0190
 BZINTS: Fermi energy:    2.760458;   36.000000 electrons
         Band energy:-0.181670E+03;  BLOECHL correction:    0.000000
       DOS:  cpu time      0.0020: real time      0.0020
    --------------------------------------------
      LOOP:  cpu time      0.0207: real time      0.0210

 eigenvalue-minimisations  :   752
 total energy-change (2. order) :-0.3011548E+02  (-0.2988774E+02)
 number of electron      36.0000000 magnetization 
 augmentation part       36.0000000 magnetization 

 Free energy of the ion-electron system (eV)
  ---------------------------------------------------
  alpha Z        PSCENC =       197.48248217
  Ewald energy   TEWEN  =     -3172.53630689
  -Hartree energ DENC   =     -1156.54557726
  -exchange      EXHF   =         0.00000000
  -V(xc)+E(xc)   XCENC  =       128.81625065
  PAW double counting   =      3616.17691320    -4285.66495278
  entropy T*S    EENTRO =         0.00000000
  eigenvalues    EBANDS =      -181.67026869
  atomic energy  EATOM  =      4826.58925392
  Solvation  Ediel_sol  =         0.00000000
  ---------------------------------------------------
  free energy    TOTEN  =       -27.35220567 eV

  energy without entropy =      -27.35220567  energy(sigma->0) =      -27.35220567


--------------------------------------------------------------------------------------------------------




--------------------------------------- Iteration      1(   4)  ---------------------------------------


     EDDAV:  cpu time      0.0235: real time      0.0239
 BZINTS: Fermi energy:    2.711386;   36.000000 electrons
         Band energy:-0.182583E+03;  BLOECHL correction:    0.000000
       DOS:  cpu time      0.0020: real time      0.0020
    --------------------------------------------
      LOOP:  cpu time      0.0256: real time      0.0259

 eigenvalue-minimisations  :   928
 total energy-change (2. order) :-0.9131038E+00  (-0.9111608E+00)
 number of electron      36.0000000 magnetization 
 augmentation part       36.0000000 magnetization 

 Free energy of the ion-electron system (eV)
  ---------------------------------------------------
  alpha Z        PSCENC =       197.48248217
  Ewald energy   TEWEN  =     -3172.53630689
  -Hartree energ DENC   =     -1156.54557726
  -exchange      EXHF   =         0.00000000
  -V(xc)+E(xc)   XCENC  =       128.81625065
  PAW double counting   =      3616.17691320    -4285.66495278
  entropy T*S    EENTRO =         0.00000000
  eigenvalues    EBANDS =      -182.58337248
  atomic energy  EATOM  =      4826.58925392
  Solvation  Ediel_sol  =         0.00000000
  ---------------------------------------------------
  free energy    TOTEN  =       -28.26530947 eV

  energy without entropy =      -28.26530947  energy(sigma->0) =      -28.26530947


--------------------------------------------------------------------------------------------------------




--------------------------------------- Iteration      1(   5)  ---------------------------------------


     EDDAV:  cpu time      0.0197: real time      0.0200
 BZINTS: Fermi energy:    2.711418;   36.000000 electrons
         Band energy:-0.182597E+03;  BLOECHL correction:    0.000000
       DOS:  cpu time      0.0021: real time      0.0021
    CHARGE:  cpu time      0.0024: real time      0.0024
    MIXING:  cpu time      0.0003: real time      0.0003
    --------------------------------------------
      LOOP:  cpu time      0.0245: real time      0.0248

 eigenvalue-minimisations  :   768
 total energy-change (2. order) :-0.1323654E-01  (-0.1321962E-01)
 number of electron      35.9999999 magnetization 
 augmentation part       17.7063326 magnetization 

 Broyden mixing:
  rms(total) = 0.10851E+01    rms(broyden)= 0.10849E+01
  rms(prec ) = 0.23275E+01
  weight for this iteration     100.00

 Free energy of the ion-electron system (eV)
  ---------------------------------------------------
  alpha Z        PSCENC =       197.48248217
  Ewald energy   TEWEN  =     -3172.53630689
  -Hartree energ DENC   =     -1156.54557726
  -exchange      EXHF   =         0.00000000
  -V(xc)+E(xc)   XCENC  =       128.81625065
  PAW double counting   =      3616.17691320    -4285.66495278
  entropy T*S    EENTRO =         0.00000000
  eigenvalues    EBANDS =      -182.59660903
  atomic energy  EATOM  =      4826.58925392
  Solvation  Ediel_sol  =         0.00000000
  ---------------------------------------------------
  free energy    TOTEN  =       -28.27854601 eV

  energy without entropy =      -28.27854601  energy(sigma->0) =      -28.27854601


--------------------------------------------------------------------------------------------------------




--------------------------------------- Iteration      1(   6)  ---------------------------------------


    POTLOK:  cpu time      0.0028: real time      0.0030
    SETDIJ:  cpu time      0.1266: real time      0.1270
     EDDAV:  cpu time      0.0270: real time      0.0272
 BZINTS: Fermi energy:    5.187097;   36.000000 electrons
         Band energy:-0.174040E+03;  BLOECHL correction:    0.000000
       DOS:  cpu time      0.0021: real time      0.0021
    CHARGE:  cpu time      0.0021: real time      0.0021
    MIXING:  cpu time      0.0003: real time      0.0003
    --------------------------------------------
      LOOP:  cpu time      0.1609: real time      0.1618

 eigenvalue-minimisations  :  1168
 total energy-change (2. order) : 0.4054636E+01  (-0.1273945E+01)
 number of electron      36.0000012 magnetization 
 augmentation part       17.4341757 magnetization 

 Broyden mixing:
  rms(total) = 0.31809E+00    rms(broyden)= 0.31764E+00
  rms(prec ) = 0.44612E+00
  weight for this iteration     100.00

 eigenvalues of (default mixing * dielectric matrix)
  average eigenvalue GAMMA=   0.9365
  0.9365

 Free energy of the ion-electron system (eV)
  ---------------------------------------------------
  alpha Z        PSCENC =       197.48248217
  Ewald energy   TEWEN  =     -3172.53630689
  -Hartree energ DENC   =     -1164.49996794
  -exchange      EXHF   =         0.00000000
  -V(xc)+E(xc)   XCENC  =       130.22788466
  PAW double counting   =      3853.49631764    -4520.94360287
  entropy T*S    EENTRO =         0.00000000
  eigenvalues    EBANDS =      -174.03997091
  atomic energy  EATOM  =      4826.58925392
  Solvation  Ediel_sol  =         0.00000000
  ---------------------------------------------------
  free energy    TOTEN  =       -24.22391022 eV

  energy without entropy =      -24.22391022  energy(sigma->0) =      -24.22391022


--------------------------------------------------------------------------------------------------------




--------------------------------------- Iteration      1(   7)  ---------------------------------------


    POTLOK:  cpu time      0.0028: real time      0.0030
    SETDIJ:  cpu time      0.1260: real time      0.1264
     EDDAV:  cpu time      0.0204: real time      0.0206
 BZINTS: Fermi energy:    5.262605;   36.000000 electrons
         Band energy:-0.169342E+03;  BLOECHL correction:    0.000000
       DOS:  cpu time      0.0021: real time      0.0021
    CHARGE:  cpu time      0.0022: real time      0.0022
    MIXING:  cpu time      0.0003: real time      0.0003
    --------------------------------------------
      LOOP:  cpu time      0.1538: real time      0.1546

 eigenvalue-minimisations  :   720
 total energy-change (2. order) :-0.9889027E-01  (-0.1453112E+00)
 number of electron      36.0000012 magnetization 
 augmentation part       17.3975859 magnetization 

 Broyden mixing:
  rms(total) = 0.28070E+00    rms(broyden)= 0.28067E+00
  rms(prec ) = 0.36397E+00
  weight for this iteration     100.00

 eigenvalues of (default mixing * dielectric matrix)
  average eigenvalue GAMMA=   1.4600
  1.1556  1.7644

 Free energy of the ion-electron system (eV)
  ---------------------------------------------------
  alpha Z        PSCENC =       197.48248217
  Ewald energy   TEWEN  =     -3172.53630689
  -Hartree energ DENC   =     -1164.12665844
  -exchange      EXHF   =         0.00000000
  -V(xc)+E(xc)   XCENC  =       130.21002821
  PAW double counting   =      4079.39179731    -4751.99131386
  entropy T*S    EENTRO =         0.00000000
  eigenvalues    EBANDS =      -169.34208292
  atomic energy  EATOM  =      4826.58925392
  Solvation  Ediel_sol  =         0.00000000
  ---------------------------------------------------
  free energy    TOTEN  =       -24.32280049 eV

  energy without entropy =      -24.32280049  energy(sigma->0) =      -24.32280049


--------------------------------------------------------------------------------------------------------




--------------------------------------- Iteration      1(   8)  ---------------------------------------


    POTLOK:  cpu time      0.0029: real time      0.0031
    SETDIJ:  cpu time      0.1266: real time      0.1271
     EDDAV:  cpu time      0.0240: real time      0.0242
 BZINTS: Fermi energy:    5.119764;   36.000000 electrons
         Band energy:-0.166688E+03;  BLOECHL correction:    0.000000
       DOS:  cpu time      0.0020: real time      0.0021
    CHARGE:  cpu time      0.0022: real time      0.0022
    MIXING:  cpu time      0.0004: real time      0.0004
    --------------------------------------------
      LOOP:  cpu time      0.1581: real time      0.1590

 eigenvalue-minimisations  :  1080
 total energy-change (2. order) : 0.2653832E-02  (-0.1779848E-01)
 number of electron      36.0000010 magnetization 
 augmentation part       17.4102871 magnetization 

 Broyden mixing:
  rms(total) = 0.76613E-01    rms(broyden)= 0.76594E-01
  rms(prec ) = 0.15011E+00
  weight for this iteration     100.00

 eigenvalues of (default mixing * dielectric matrix)
  average eigenvalue GAMMA=   1.5120
  2.5574  0.9894  0.9894

 Free energy of the ion-electron system (eV)
  ---------------------------------------------------
  alpha Z        PSCENC =       197.48248217
  Ewald energy   TEWEN  =     -3172.53630689
  -Hartree energ DENC   =     -1160.78327395
  -exchange      EXHF   =         0.00000000
  -V(xc)+E(xc)   XCENC  =       129.95193086
  PAW double counting   =      4521.95509630    -5200.29165567
  entropy T*S    EENTRO =         0.00000000
  eigenvalues    EBANDS =      -166.68767340
  atomic energy  EATOM  =      4826.58925392
  Solvation  Ediel_sol  =         0.00000000
  ---------------------------------------------------
  free energy    TOTEN  =       -24.32014665 eV

  energy without entropy =      -24.32014665  energy(sigma->0) =      -24.32014665


--------------------------------------------------------------------------------------------------------




--------------------------------------- Iteration      1(   9)  ---------------------------------------


    POTLOK:  cpu time      0.0029: real time      0.0032
    SETDIJ:  cpu time      0.1259: real time      0.1264
     EDDAV:  cpu time      0.0263: real time      0.0265
 BZINTS: Fermi energy:    5.268056;   36.000000 electrons
         Band energy:-0.167054E+03;  BLOECHL correction:   -0.000000
       DOS:  cpu time      0.0022: real time      0.0022
    CHARGE:  cpu time      0.0020: real time      0.0021
    MIXING:  cpu time      0.0003: real time      0.0003
    --------------------------------------------
      LOOP:  cpu time      0.1597: real time      0.1606

 eigenvalue-minimisations  :  1120
 total energy-change (2. order) : 0.1536048E-01  (-0.6876937E-02)
 number of electron      36.0000011 magnetization 
 augmentation part       17.3969499 magnetization 

 Broyden mixing:
  rms(total) = 0.35377E-01    rms(broyden)= 0.35366E-01
  rms(prec ) = 0.37996E-01
  weight for this iteration     100.00

 eigenvalues of (default mixing * dielectric matrix)
  average eigenvalue GAMMA=   1.7869
  2.5020  2.5020  1.0718  1.0718

 Free energy of the ion-electron system (eV)
  ---------------------------------------------------
  alpha Z        PSCENC =       197.48248217
  Ewald energy   TEWEN  =     -3172.53630689
  -Hartree energ DENC   =     -1161.24872605
  -exchange      EXHF   =         0.00000000
  -V(xc)+E(xc)   XCENC  =       130.03877706
  PAW double counting   =      4516.41059876    -5193.98659299
  entropy T*S    EENTRO =         0.00000000
  eigenvalues    EBANDS =      -167.05427216
  atomic energy  EATOM  =      4826.58925392
  Solvation  Ediel_sol  =         0.00000000
  ---------------------------------------------------
  free energy    TOTEN  =       -24.30478618 eV

  energy without entropy =      -24.30478618  energy(sigma->0) =      -24.30478618


--------------------------------------------------------------------------------------------------------




--------------------------------------- Iteration      1(  10)  ---------------------------------------


    POTLOK:  cpu time      0.0028: real time      0.0030
    SETDIJ:  cpu time      0.1260: real time      0.1264
     EDDAV:  cpu time      0.0180: real time      0.0182
 BZINTS: Fermi energy:    5.257647;   36.000000 electrons
         Band energy:-0.166909E+03;  BLOECHL correction:    0.000000
       DOS:  cpu time      0.0021: real time      0.0021
    CHARGE:  cpu time      0.0020: real time      0.0020
    MIXING:  cpu time      0.0004: real time      0.0004
    --------------------------------------------
      LOOP:  cpu time      0.1513: real time      0.1520

 eigenvalue-minimisations  :   800
 total energy-change (2. order) :-0.8459704E-03  (-0.3688495E-03)
 number of electron      36.0000011 magnetization 
 augmentation part       17.3973603 magnetization 

 Broyden mixing:
  rms(total) = 0.87358E-02    rms(broyden)= 0.87321E-02
  rms(prec ) = 0.18440E-01
  weight for this iteration     100.00

 eigenvalues of (default mixing * dielectric matrix)
  average eigenvalue GAMMA=   1.6528
  2.7619  2.4087  1.0216  1.0216  1.0505

 Free energy of the ion-electron system (eV)
  ---------------------------------------------------
  alpha Z        PSCENC =       197.48248217
  Ewald energy   TEWEN  =     -3172.53630689
  -Hartree energ DENC   =     -1161.42325760
  -exchange      EXHF   =         0.00000000
  -V(xc)+E(xc)   XCENC  =       130.03444608
  PAW double counting   =      4488.96739380    -5166.51093704
  entropy T*S    EENTRO =         0.00000000
  eigenvalues    EBANDS =      -166.90870659
  atomic energy  EATOM  =      4826.58925392
  Solvation  Ediel_sol  =         0.00000000
  ---------------------------------------------------
  free energy    TOTEN  =       -24.30563215 eV

  energy without entropy =      -24.30563215  energy(sigma->0) =      -24.30563215


--------------------------------------------------------------------------------------------------------




--------------------------------------- Iteration      1(  11)  ---------------------------------------


    POTLOK:  cpu time      0.0028: real time      0.0030
    SETDIJ:  cpu time      0.1261: real time      0.1265
     EDDAV:  cpu time      0.0240: real time      0.0242
 BZINTS: Fermi energy:    5.280130;   36.000000 electrons
         Band energy:-0.166958E+03;  BLOECHL correction:    0.000000
       DOS:  cpu time      0.0020: real time      0.0020
    CHARGE:  cpu time      0.0021: real time      0.0021
    MIXING:  cpu time      0.0003: real time      0.0003
    --------------------------------------------
      LOOP:  cpu time      0.1573: real time      0.1582

 eigenvalue-minimisations  :  1056
 total energy-change (2. order) : 0.2011295E-03  (-0.1482274E-03)
 number of electron      36.0000011 magnetization 
 augmentation part       17.3956377 magnetization 

 Broyden mixing:
  rms(total) = 0.35225E-02    rms(broyden)= 0.35099E-02
  rms(prec ) = 0.45228E-02
  weight for this iteration     100.00

 eigenvalues of (default mixing * dielectric matrix)
  average eigenvalue GAMMA=   1.5914
  2.6159  1.9404  1.9404  1.0613  1.0613  0.9289

 Free energy of the ion-electron system (eV)
  ---------------------------------------------------
  alpha Z        PSCENC =       197.48248217
  Ewald energy   TEWEN  =     -3172.53630689
  -Hartree energ DENC   =     -1161.52114293
  -exchange      EXHF   =         0.00000000
  -V(xc)+E(xc)   XCENC  =       130.04778476
  PAW double counting   =      4487.86121345    -5165.27092774
  entropy T*S    EENTRO =         0.00000000
  eigenvalues    EBANDS =      -166.95778776
  atomic energy  EATOM  =      4826.58925392
  Solvation  Ediel_sol  =         0.00000000
  ---------------------------------------------------
  free energy    TOTEN  =       -24.30543102 eV

  energy without entropy =      -24.30543102  energy(sigma->0) =      -24.30543102


--------------------------------------------------------------------------------------------------------




--------------------------------------- Iteration      1(  12)  ---------------------------------------


    POTLOK:  cpu time      0.0029: real time      0.0031
    SETDIJ:  cpu time      0.1260: real time      0.1265
     EDDAV:  cpu time      0.0167: real time      0.0169
 BZINTS: Fermi energy:    5.279633;   36.000000 electrons
         Band energy:-0.166946E+03;  BLOECHL correction:    0.000000
       DOS:  cpu time      0.0021: real time      0.0021
    CHARGE:  cpu time      0.0020: real time      0.0020
    MIXING:  cpu time      0.0004: real time      0.0003
    --------------------------------------------
      LOOP:  cpu time      0.1501: real time      0.1510

 eigenvalue-minimisations  :   720
 total energy-change (2. order) :-0.1291240E-04  (-0.1514271E-04)
 number of electron      36.0000011 magnetization 
 augmentation part       17.3956426 magnetization 

 Broyden mixing:
  rms(total) = 0.19791E-02    rms(broyden)= 0.19672E-02
  rms(prec ) = 0.34510E-02
  weight for this iteration     100.00

 eigenvalues of (default mixing * dielectric matrix)
  average eigenvalue GAMMA=   1.9049
  4.2180  2.5741  2.5741  1.0303  1.0303  0.9936  0.9141

 Free energy of the ion-electron system (eV)
  ---------------------------------------------------
  alpha Z        PSCENC =       197.48248217
  Ewald energy   TEWEN  =     -3172.53630689
  -Hartree energ DENC   =     -1161.53459807
  -exchange      EXHF   =         0.00000000
  -V(xc)+E(xc)   XCENC  =       130.04812433
  PAW double counting   =      4489.63003063    -5167.03860872
  entropy T*S    EENTRO =         0.00000000
  eigenvalues    EBANDS =      -166.94582131
  atomic energy  EATOM  =      4826.58925392
  Solvation  Ediel_sol  =         0.00000000
  ---------------------------------------------------
  free energy    TOTEN  =       -24.30544393 eV

  energy without entropy =      -24.30544393  energy(sigma->0) =      -24.30544393


--------------------------------------------------------------------------------------------------------




--------------------------------------- Iteration      1(  13)  ---------------------------------------


    POTLOK:  cpu time      0.0029: real time      0.0030
    SETDIJ:  cpu time      0.1260: real time      0.1265
     EDDAV:  cpu time      0.0238: real time      0.0240
 BZINTS: Fermi energy:    5.275744;   36.000000 electrons
         Band energy:-0.166902E+03;  BLOECHL correction:    0.000000
       DOS:  cpu time      0.0020: real time      0.0020
    CHARGE:  cpu time      0.0020: real time      0.0020
    MIXING:  cpu time      0.0004: real time      0.0004
    --------------------------------------------
      LOOP:  cpu time      0.1571: real time      0.1579

 eigenvalue-minimisations  :   992
 total energy-change (2. order) :-0.1875272E-05  (-0.7689997E-05)
 number of electron      36.0000011 magnetization 
 augmentation part       17.3962604 magnetization 

 Broyden mixing:
  rms(total) = 0.30142E-02    rms(broyden)= 0.30065E-02
  rms(prec ) = 0.36162E-02
  weight for this iteration     100.00

 eigenvalues of (default mixing * dielectric matrix)
  average eigenvalue GAMMA=   1.6450
  3.2092  2.4108  2.4108  1.1256  1.1256  0.9669  0.9669  0.9443

 Free energy of the ion-electron system (eV)
  ---------------------------------------------------
  alpha Z        PSCENC =       197.48248217
  Ewald energy   TEWEN  =     -3172.53630689
  -Hartree energ DENC   =     -1161.57779650
  -exchange      EXHF   =         0.00000000
  -V(xc)+E(xc)   XCENC  =       130.04694639
  PAW double counting   =      4491.59155217    -5168.99986342
  entropy T*S    EENTRO =         0.00000000
  eigenvalues    EBANDS =      -166.90171366
  atomic energy  EATOM  =      4826.58925392
  Solvation  Ediel_sol  =         0.00000000
  ---------------------------------------------------
  free energy    TOTEN  =       -24.30544581 eV

  energy without entropy =      -24.30544581  energy(sigma->0) =      -24.30544581


--------------------------------------------------------------------------------------------------------




--------------------------------------- Iteration      1(  14)  ---------------------------------------


    POTLOK:  cpu time      0.0028: real time      0.0030
    SETDIJ:  cpu time      0.1268: real time      0.1272
     EDDAV:  cpu time      0.0215: real time      0.0216
 BZINTS: Fermi energy:    5.277606;   36.000000 electrons
         Band energy:-0.166899E+03;  BLOECHL correction:    0.000000
       DOS:  cpu time      0.0020: real time      0.0020
    CHARGE:  cpu time      0.0021: real time      0.0021
    MIXING:  cpu time      0.0004: real time      0.0004
    --------------------------------------------
      LOOP:  cpu time      0.1556: real time      0.1564

 eigenvalue-minimisations  :   944
 total energy-change (2. order) : 0.2060845E-05  (-0.1431034E-05)
 number of electron      36.0000011 magnetization 
 augmentation part       17.3960083 magnetization 

 Broyden mixing:
  rms(total) = 0.79073E-03    rms(broyden)= 0.76150E-03
  rms(prec ) = 0.88318E-03
  weight for this iteration     100.00

 eigenvalues of (default mixing * dielectric matrix)
  average eigenvalue GAMMA=   1.5503
  3.2146  2.5423  2.3475  1.1318  1.1318  0.9916  0.9810  0.9810  0.6312

 Free energy of the ion-electron system (eV)
  ---------------------------------------------------
  alpha Z        PSCENC =       197.48248217
  Ewald energy   TEWEN  =     -3172.53630689
  -Hartree energ DENC   =     -1161.57911693
  -exchange      EXHF   =         0.00000000
  -V(xc)+E(xc)   XCENC  =       130.04793593
  PAW double counting   =      4489.92294533    -5167.33410644
  entropy T*S    EENTRO =         0.00000000
  eigenvalues    EBANDS =      -166.89853085
  atomic energy  EATOM  =      4826.58925392
  Solvation  Ediel_sol  =         0.00000000
  ---------------------------------------------------
  free energy    TOTEN  =       -24.30544375 eV

  energy without entropy =      -24.30544375  energy(sigma->0) =      -24.30544375


--------------------------------------------------------------------------------------------------------




--------------------------------------- Iteration      1(  15)  ---------------------------------------


    POTLOK:  cpu time      0.0028: real time      0.0030
    SETDIJ:  cpu time      0.1262: real time      0.1267
     EDDAV:  cpu time      0.0217: real time      0.0219
 BZINTS: Fermi energy:    5.277636;   36.000000 electrons
         Band energy:-0.166896E+03;  BLOECHL correction:    0.000000
       DOS:  cpu time      0.0021: real time      0.0021
    CHARGE:  cpu time      0.0022: real time      0.0022
    MIXING:  cpu time      0.0004: real time      0.0004
    --------------------------------------------
      LOOP:  cpu time      0.1555: real time      0.1563

 eigenvalue-minimisations  :   872
 total energy-change (2. order) :-0.8903316E-07  (-0.1328902E-06)
 number of electron      36.0000011 magnetization 
 augmentation part       17.3959565 magnetization 

 Broyden mixing:
  rms(total) = 0.37832E-03    rms(broyden)= 0.31268E-03
  rms(prec ) = 0.35929E-03
  weight for this iteration     100.00
  WARNING: grid for Broyden might be to small

 eigenvalues of (default mixing * dielectric matrix)
  average eigenvalue GAMMA=   1.6156
  3.2634  2.7000  2.3874  1.4916  1.4916  1.0266  1.0266  1.0710  0.8492  0.8492

 Free energy of the ion-electron system (eV)
  ---------------------------------------------------
  alpha Z        PSCENC =       197.48248217
  Ewald energy   TEWEN  =     -3172.53630689
  -Hartree energ DENC   =     -1161.58098361
  -exchange      EXHF   =         0.00000000
  -V(xc)+E(xc)   XCENC  =       130.04811992
  PAW double counting   =      4489.66917987    -5167.08095162
  entropy T*S    EENTRO =         0.00000000
  eigenvalues    EBANDS =      -166.89623759
  atomic energy  EATOM  =      4826.58925392
  Solvation  Ediel_sol  =         0.00000000
  ---------------------------------------------------
  free energy    TOTEN  =       -24.30544383 eV

  energy without entropy =      -24.30544383  energy(sigma->0) =      -24.30544383


--------------------------------------------------------------------------------------------------------




--------------------------------------- Iteration      1(  16)  ---------------------------------------


    POTLOK:  cpu time      0.0029: real time      0.0031
    SETDIJ:  cpu time      0.1259: real time      0.1264
     EDDAV:  cpu time      0.0134: real time      0.0135
 BZINTS: Fermi energy:    5.277615;   36.000000 electrons
         Band energy:-0.166898E+03;  BLOECHL correction:    0.000000
       DOS:  cpu time      0.0020: real time      0.0020
    --------------------------------------------
      LOOP:  cpu time      0.1442: real time      0.1450

 eigenvalue-minimisations  :   440
 total energy-change (2. order) : 0.6593837E-08  (-0.3249941E-08)
 number of electron      36.0000011 magnetization 
 augmentation part       17.3959565 magnetization 

 Free energy of the ion-electron system (eV)
  ---------------------------------------------------
  alpha Z        PSCENC =       197.48248217
  Ewald energy   TEWEN  =     -3172.53630689
  -Hartree energ DENC   =     -1161.57992456
  -exchange      EXHF   =         0.00000000
  -V(xc)+E(xc)   XCENC  =       130.04811975
  PAW double counting   =      4489.57780166    -5166.98865548
  entropy T*S    EENTRO =         0.00000000
  eigenvalues    EBANDS =      -166.89821440
  atomic energy  EATOM  =      4826.58925392
  Solvation  Ediel_sol  =         0.00000000
  ---------------------------------------------------
  free energy    TOTEN  =       -24.30544383 eV

  energy without entropy =      -24.30544383  energy(sigma->0) =      -24.30544383


--------------------------------------------------------------------------------------------------------




 average (electrostatic) potential at core
  the test charge radii are     1.0314  0.7089
  (the norm of the test charge is              1.0000)
       1 -63.4938       2 -63.4938       3 -62.0638       4 -62.0638
 
 
 
 E-fermi :   5.2776     XC(G=0): -11.6651     alpha+bet :-13.3927

 Fermi energy:         5.2776150183

 k-point     1 :       0.0000    0.0000    0.1250
  band No.  band energies     occupation 
      1     -10.6218      2.00000
      2      -9.7651      2.00000
      3      -8.1116      2.00000
      4      -8.1078      2.00000
      5      -8.1078      2.00000
      6      -8.0511      2.00000
      7      -8.0511      2.00000
      8      -7.8505      2.00000
      9      -7.8505      2.00000
     10      -7.7607      2.00000
     11      -7.7607      2.00000
     12      -6.6948      2.00000
     13      -1.4423      2.00000
     14       4.3171      2.00000
     15       4.3176      2.00000
     16       4.7766      2.00000
     17       5.2769      2.00000
     18       5.2775      2.00000
     19       7.6520      0.00000
     20       9.5835      0.00000
     21      14.4049      0.00000
     22      15.2142      0.00000
     23      15.2142      0.00000
     24      15.6380      0.00000

 k-point     2 :       0.1667   -0.0000    0.1250
  band No.  band energies     occupation 
      1     -10.3730      2.00000
      2      -9.6975      2.00000
      3      -8.0918      2.00000
      4      -8.0721      2.00000
      5      -8.0305      2.00000
      6      -8.0003      2.00000
      7      -7.9943      2.00000
      8      -7.8661      2.00000
      9      -7.8498      2.00000
     10      -7.7979      2.00000
     11      -7.7558      2.00000
     12      -6.4985      2.00000
     13      -1.0962      2.00000
     14       2.6555      2.00000
     15       3.4025      2.00000
     16       3.8164      2.00000
     17       4.9069      2.00000
     18       5.0200      2.00000
     19       8.8963      0.00000
     20      10.8615      0.00000
     21      13.4192      0.00000
     22      14.0997      0.00000
     23      15.6068      0.00000
     24      15.8145      0.00000

 k-point     3 :       0.3333   -0.0000    0.1250
  band No.  band energies     occupation 
      1      -9.9197      2.00000
      2      -9.6045      2.00000
      3      -8.0589      2.00000
      4      -8.0316      2.00000
      5      -7.9641      2.00000
      6      -7.9013      2.00000
      7      -7.8997      2.00000
      8      -7.8532      2.00000
      9      -7.8085      2.00000
     10      -7.7449      2.00000
     11      -7.4250      2.00000
     12      -6.0848      2.00000
     13      -0.6599      2.00000
     14       0.6304      2.00000
     15       1.3326      2.00000
     16       2.9904      2.00000
     17       4.1245      2.00000
     18       4.4933      2.00000
     19       9.9820      0.00000
     20      11.0531      0.00000
     21      12.2370      0.00000
     22      13.6404      0.00000
     23      15.4903      0.00000
     24      16.0540      0.00000

 k-point     4 :       0.5000   -0.0000    0.1250
  band No.  band energies     occupation 
      1      -9.7433      2.00000
      2      -9.5789      2.00000
      3      -8.0636      2.00000
      4      -8.0273      2.00000
      5      -7.9301      2.00000
      6      -7.9271      2.00000
      7      -7.8576      2.00000
      8      -7.8217      2.00000
      9      -7.7660      2.00000
     10      -7.7353      2.00000
     11      -6.6216      2.00000
     12      -6.1297      2.00000
     13      -1.2400      2.00000
     14      -0.1577      2.00000
     15       1.3907      2.00000
     16       2.6289      2.00000
     17       3.3006      2.00000
     18       4.2380      2.00000
     19      10.2259      0.00000
     20      10.3988      0.00000
     21      12.0718      0.00000
     22      13.6529      0.00000
     23      15.6671      0.00000
     24      15.8578      0.00000

 k-point     5 :       0.1667    0.1667    0.1250
  band No.  band energies     occupation 
      1     -10.0218      2.00000
      2      -9.6225      2.00000
      3      -8.0559      2.00000
      4      -8.0402      2.00000
      5      -7.9744      2.00000
      6      -7.9571      2.00000
      7      -7.8848      2.00000
      8      -7.8510      2.00000
      9      -7.8143      2.00000
     10      -7.7848      2.00000
     11      -7.6030      2.00000
     12      -6.1731      2.00000
     13      -0.5973      2.00000
     14       1.4303      2.00000
     15       1.5632      2.00000
     16       2.8721      2.00000
     17       4.2128      2.00000
     18       4.4610      2.00000
     19      10.2145      0.00000
     20      12.1544      0.00000
     21      12.5782      0.00000
     22      13.0279      0.00000
     23      15.1826      0.00000
     24      15.5226      0.00000

 k-point     6 :       0.3333    0.1667    0.1250
  band No.  band energies     occupation 
      1      -9.7332      2.00000
      2      -9.5828      2.00000
      3      -8.0730      2.00000
      4      -8.0058      2.00000
      5      -7.9271      2.00000
      6      -7.8924      2.00000
      7      -7.8823      2.00000
      8      -7.8443      2.00000
      9      -7.7882      2.00000
     10      -7.7657      2.00000
     11      -6.7749      2.00000
     12      -5.9412      2.00000
     13      -0.8051      2.00000
     14       0.1354      2.00000
     15       1.2937      2.00000
     16       1.8293      2.00000
     17       3.3666      2.00000
     18       3.5500      2.00000
     19      10.8991      0.00000
     20      11.8313      0.00000
     21      12.1880      0.00000
     22      13.5404      0.00000
     23      14.9376      0.00000
     24      15.4347      0.00000

 k-point     7 :       0.3333    0.3333    0.1250
  band No.  band energies     occupation 
      1      -9.6136      2.00000
      2      -9.6136      2.00000
      3      -8.0999      2.00000
      4      -7.9253      2.00000
      5      -7.9253      2.00000
      6      -7.8882      2.00000
      7      -7.8529      2.00000
      8      -7.8529      2.00000
      9      -7.8251      2.00000
     10      -7.7883      2.00000
     11      -6.1014      2.00000
     12      -6.1014      2.00000
     13      -0.1949      2.00000
     14      -0.1948      2.00000
     15       0.1186      2.00000
     16       2.4580      2.00000
     17       2.5926      2.00000
     18       2.5926      2.00000
     19      10.6920      0.00000
     20      12.9479      0.00000
     21      12.9479      0.00000
     22      13.7004      0.00000
     23      14.9071      0.00000
     24      14.9071      0.00000

 k-point     8 :       0.0000    0.0000    0.3750
  band No.  band energies     occupation 
      1     -10.3059      2.00000
      2      -9.9357      2.00000
      3      -8.0982      2.00000
      4      -8.0982      2.00000
      5      -8.0744      2.00000
      6      -8.0744      2.00000
      7      -7.9669      2.00000
      8      -7.8177      2.00000
      9      -7.8177      2.00000
     10      -7.7808      2.00000
     11      -7.7808      2.00000
     12      -7.4686      2.00000
     13       0.3312      2.00000
     14       2.6429      2.00000
     15       4.5904      2.00000
     16       4.5909      2.00000
     17       4.9877      2.00000
     18       4.9882      2.00000
     19       9.1077      0.00000
     20       9.6975      0.00000
     21      13.8399      0.00000
     22      14.1352      0.00000
     23      15.4445      0.00000
     24      15.4445      0.00000

 k-point     9 :       0.1667   -0.0000    0.3750
  band No.  band energies     occupation 
      1     -10.1067      2.00000
      2      -9.8186      2.00000
      3      -8.0743      2.00000
      4      -8.0561      2.00000
      5      -8.0481      2.00000
      6      -8.0261      2.00000
      7      -7.9303      2.00000
      8      -7.8495      2.00000
      9      -7.8183      2.00000
     10      -7.7795      2.00000
     11      -7.7215      2.00000
     12      -7.2366      2.00000
     13       0.4107      2.00000
     14       2.1305      2.00000
     15       3.2494      2.00000
     16       4.1476      2.00000
     17       4.1658      2.00000
     18       4.6429      2.00000
     19       9.8922      0.00000
     20      10.8245      0.00000
     21      12.9492      0.00000
     22      13.4405      0.00000
     23      15.1303      0.00000
     24      15.8448      0.00000

 k-point    10 :       0.3333   -0.0000    0.3750
  band No.  band energies     occupation 
      1      -9.7761      2.00000
      2      -9.6459      2.00000
      3      -8.0612      2.00000
      4      -8.0207      2.00000
      5      -7.9917      2.00000
      6      -7.9368      2.00000
      7      -7.8797      2.00000
      8      -7.8485      2.00000
      9      -7.7940      2.00000
     10      -7.7681      2.00000
     11      -7.1797      2.00000
     12      -6.6518      2.00000
     13      -0.4527      2.00000
     14       0.2356      2.00000
     15       2.4171      2.00000
     16       3.3898      2.00000
     17       3.8688      2.00000
     18       4.0058      2.00000
     19       9.7825      0.00000
     20      10.7131      0.00000
     21      12.7250      0.00000
     22      13.3839      0.00000
     23      15.1842      0.00000
     24      15.6540      0.00000

 k-point    11 :       0.5000   -0.0000    0.3750
  band No.  band energies     occupation 
      1      -9.6586      2.00000
      2      -9.5905      2.00000
      3      -8.0732      2.00000
      4      -8.0292      2.00000
      5      -7.9746      2.00000
      6      -7.9020      2.00000
      7      -7.8608      2.00000
      8      -7.8041      2.00000
      9      -7.7628      2.00000
     10      -7.7524      2.00000
     11      -6.5099      2.00000
     12      -6.3011      2.00000
     13      -1.4273      2.00000
     14      -0.9697      2.00000
     15       2.7820      2.00000
     16       3.0547      2.00000
     17       3.7144      2.00000
     18       3.7459      2.00000
     19       9.4272      0.00000
     20      10.1797      0.00000
     21      12.8685      0.00000
     22      13.2672      0.00000
     23      15.3580      0.00000
     24      15.4716      0.00000

 k-point    12 :       0.1667    0.1667    0.3750
  band No.  band energies     occupation 
      1      -9.8462      2.00000
      2      -9.6803      2.00000
      3      -8.0377      2.00000
      4      -8.0218      2.00000
      5      -8.0003      2.00000
      6      -7.9839      2.00000
      7      -7.8875      2.00000
      8      -7.8862      2.00000
      9      -7.7933      2.00000
     10      -7.7856      2.00000
     11      -7.3694      2.00000
     12      -6.8186      2.00000
     13       0.0731      2.00000
     14       0.9184      2.00000
     15       2.5787      2.00000
     16       3.0363      2.00000
     17       3.6879      2.00000
     18       4.0485      2.00000
     19      10.5075      0.00000
     20      11.5176      0.00000
     21      12.7389      0.00000
     22      13.1451      0.00000
     23      14.7274      0.00000
     24      15.2084      0.00000

 k-point    13 :       0.3333    0.1667    0.3750
  band No.  band energies     occupation 
      1      -9.6512      2.00000
      2      -9.5894      2.00000
      3      -8.0359      2.00000
      4      -8.0103      2.00000
      5      -7.9873      2.00000
      6      -7.9222      2.00000
      7      -7.8658      2.00000
      8      -7.8403      2.00000
      9      -7.7841      2.00000
     10      -7.7736      2.00000
     11      -6.5866      2.00000
     12      -6.2409      2.00000
     13      -0.9733      2.00000
     14      -0.5388      2.00000
     15       1.8787      2.00000
     16       2.6694      2.00000
     17       3.0800      2.00000
     18       3.9442      2.00000
     19      10.4672      0.00000
     20      11.2954      0.00000
     21      12.9508      0.00000
     22      13.5927      0.00000
     23      14.3091      0.00000
     24      14.7421      0.00000

 k-point    14 :       0.3333    0.3333    0.3750
  band No.  band energies     occupation 
      1      -9.5812      2.00000
      2      -9.5812      2.00000
      3      -8.0257      2.00000
      4      -7.9801      2.00000
      5      -7.9801      2.00000
      6      -7.9245      2.00000
      7      -7.8324      2.00000
      8      -7.8312      2.00000
      9      -7.8166      2.00000
     10      -7.8166      2.00000
     11      -6.0932      2.00000
     12      -6.0932      2.00000
     13      -0.7539      2.00000
     14      -0.7539      2.00000
     15       0.6851      2.00000
     16       1.6241      2.00000
     17       3.6388      2.00000
     18       3.6388      2.00000
     19      11.9494      0.00000
     20      11.9505      0.00000
     21      11.9505      0.00000
     22      13.1923      0.00000
     23      14.3995      0.00000
     24      14.3995      0.00000


--------------------------------------------------------------------------------------------------------


 soft charge-density along one line, spin component           1
         0         1         2         3         4         5         6         7         8         9
 total charge-density along one line
 
 pseudopotential strength for first ion, spin component:           1
-11.334   0.000   0.000  -0.000  -0.000   0.406  -0.000  -0.000
  0.000 -11.338   0.000  -0.000  -0.000  -0.000   0.408  -0.000
  0.000   0.000 -11.338  -0.000  -0.000  -0.000  -0.000   0.409
 -0.000  -0.000  -0.000 -11.338   0.000  -0.000   0.000   0.000
 -0.000  -0.000  -0.000   0.000 -11.334   0.000  -0.000   0.000
  0.406  -0.000  -0.000  -0.000   0.000   4.918   0.000   0.000
 -0.000   0.408  -0.000   0.000  -0.000   0.000   4.915  -0.000
 -0.000  -0.000   0.409   0.000   0.000   0.000  -0.000   4.918
 -0.000   0.000   0.000   0.408  -0.000  -0.002  -0.000   0.000
  0.000  -0.000   0.000  -0.000   0.406   0.000  -0.002  -0.000
 -0.000  -0.000   0.000   0.000   0.000   0.000   0.000   0.000
  0.000   0.000   0.000  -0.000  -0.000  -0.000  -0.000   0.000
  0.000  -0.000   0.000   0.000  -0.000  -0.000   0.003  -0.000
  0.000   0.000  -0.000  -0.000  -0.000  -0.000  -0.000  -0.005
 -0.000   0.000  -0.000  -0.000  -0.000  -0.004  -0.000   0.000
 -0.000   0.008  -0.000  -0.000  -0.010   0.000  -0.003   0.000
 -0.000  -0.000  -0.013   0.000   0.000   0.000   0.000   0.005
 -0.010  -0.000   0.000   0.008   0.000   0.004   0.000  -0.000
 total augmentation occupancy for first ion, spin component:           1
  2.013  -0.000   0.000  -0.003   0.000   0.036  -0.000   0.000  -0.010  -0.000  -0.000  -0.000   0.000   0.000   0.019   0.000
 -0.000   2.011  -0.000  -0.000  -0.003  -0.000   0.027  -0.000  -0.000  -0.011   0.000   0.000  -0.013  -0.000   0.000  -0.002
  0.000  -0.000   2.014  -0.000   0.000   0.000  -0.000   0.042  -0.000   0.000  -0.001  -0.000   0.000   0.023   0.000   0.000
 -0.003  -0.000  -0.000   2.011   0.000  -0.011  -0.000  -0.000   0.027   0.000  -0.000   0.000   0.000   0.000  -0.013   0.000
  0.000  -0.003   0.000   0.000   2.013   0.000  -0.010   0.000   0.000   0.036  -0.000  -0.000   0.019   0.000  -0.000   0.003
  0.036  -0.000   0.000  -0.011   0.000   0.095  -0.000   0.000  -0.036   0.000  -0.000  -0.000   0.000   0.000   0.206   0.000
 -0.000   0.027  -0.000  -0.000  -0.010  -0.000   0.067  -0.000  -0.000  -0.036   0.000   0.000  -0.141   0.000   0.000  -0.003
  0.000  -0.000   0.042  -0.000   0.000   0.000  -0.000   0.120  -0.000   0.000  -0.007  -0.000   0.000   0.247   0.000   0.000
 -0.010  -0.000  -0.000   0.027   0.000  -0.036  -0.000  -0.000   0.067   0.000  -0.000   0.000   0.000   0.000  -0.141   0.000
  0.000  -0.011   0.000   0.000   0.036  -0.000  -0.036   0.000   0.000   0.095  -0.000  -0.000   0.206   0.000  -0.000   0.005
 -0.000   0.000  -0.001  -0.000  -0.000  -0.000   0.000  -0.007  -0.000  -0.000   1.321   0.039   0.000   0.002   0.000  -0.000
 -0.000   0.000  -0.000   0.000  -0.000  -0.000  -0.000  -0.000  -0.000  -0.000   0.039   0.002  -0.000  -0.000   0.000   0.000
  0.000  -0.013   0.000   0.000   0.019   0.000  -0.141   0.000   0.000   0.206   0.000   0.000   1.063   0.000  -0.000   0.024
  0.000  -0.000   0.023   0.000   0.000   0.000   0.000   0.247   0.000   0.000   0.002  -0.000  -0.000   1.042  -0.000   0.000
  0.019   0.000   0.000  -0.013  -0.000   0.206   0.000   0.000  -0.141  -0.000   0.000  -0.000  -0.000  -0.000   1.063  -0.000
  0.000  -0.002   0.000   0.000   0.003   0.000  -0.003   0.000   0.000   0.005  -0.000   0.000   0.024   0.000  -0.000   0.001
  0.000  -0.000   0.004  -0.000   0.000   0.000   0.000   0.006   0.000   0.000   0.000  -0.000   0.000   0.023   0.000   0.000
  0.003   0.000   0.000  -0.002  -0.000   0.005   0.000   0.000  -0.003  -0.000   0.000   0.000  -0.000   0.000   0.024  -0.000


------------------------ aborting loop because EDIFF is reached ----------------------------------------





 total charge

# of ion       s       p       d       tot
------------------------------------------
    1        0.787   0.897  10.180  11.863
    2        0.787   0.897  10.180  11.863
    3        1.237   2.474   0.000   3.711
    4        1.237   2.474   0.000   3.711
--------------------------------------------------
tot          4.048   6.741  20.360  31.149
 
    CHARGE:  cpu time      0.0021: real time      0.0021
    FORLOC:  cpu time      0.0003: real time      0.0003
    FORNL :  cpu time      0.0031: real time      0.0031
    STRESS:  cpu time      0.0319: real time      0.0321
    FORCOR:  cpu time      0.0029: real time      0.0029
    FORHAR:  cpu time      0.0007: real time      0.0007
    MIXING:  cpu time      0.0004: real time      0.0004
    OFIELD:  cpu time      0.0000: real time      0.0000

  FORCE on cell =-STRESS in cart. coord.  units (eV):
  Direction    XX          YY          ZZ          XY          YZ          ZX
[...]
      9      -7.9080      2.00000
     10      -7.8775      2.00000
     11      -7.6890      2.00000
     12      -6.2690      2.00000
     13      -0.6523      2.00000
     14       1.3737      2.00000
     15       1.4859      2.00000
     16       2.8012      2.00000
     17       4.1331      2.00000
     18       4.3781      2.00000
     19      10.0695      0.00000
     20      12.0090      0.00000
     21      12.4527      0.00000
     22      12.8952      0.00000
     23      15.0455      0.00000
     24      15.3715      0.00000

 k-point     6 :       0.3333    0.1667    0.1250
  band No.  band energies     occupation 
      1      -9.7808      2.00000
      2      -9.6374      2.00000
      3      -8.1596      2.00000
      4      -8.0943      2.00000
      5      -8.0176      2.00000
      6      -7.9839      2.00000
      7      -7.9742      2.00000
      8      -7.9372      2.00000
      9      -7.8827      2.00000
     10      -7.8605      2.00000
     11      -6.8633      2.00000
     12      -6.0401      2.00000
     13      -0.8573      2.00000
     14       0.0713      2.00000
     15       1.2372      2.00000
     16       1.7734      2.00000
     17       3.2951      2.00000
     18       3.4757      2.00000
     19      10.7819      0.00000
     20      11.7007      0.00000
     21      12.0466      0.00000
     22      13.3864      0.00000
     23      14.7946      0.00000
     24      15.2898      0.00000

 k-point     7 :       0.3333    0.3333    0.1250
  band No.  band energies     occupation 
      1      -9.6666      2.00000
      2      -9.6666      2.00000
      3      -8.1858      2.00000
      4      -8.0159      2.00000
      5      -8.0159      2.00000
      6      -7.9802      2.00000
      7      -7.9456      2.00000
      8      -7.9456      2.00000
      9      -7.9187      2.00000
     10      -7.8825      2.00000
     11      -6.1987      2.00000
     12      -6.1987      2.00000
     13      -0.2572      2.00000
     14      -0.2571      2.00000
     15       0.0818      2.00000
     16       2.3966      2.00000
     17       2.5271      2.00000
     18       2.5271      2.00000
     19      10.5992      0.00000
     20      12.7838      0.00000
     21      12.7838      0.00000
     22      13.5743      0.00000
     23      14.7619      0.00000
     24      14.7620      0.00000

 k-point     8 :       0.0000    0.0000    0.3750
  band No.  band energies     occupation 
      1     -10.3331      2.00000
      2      -9.9746      2.00000
      3      -8.1844      2.00000
      4      -8.1844      2.00000
      5      -8.1613      2.00000
      6      -8.1613      2.00000
      7      -8.0504      2.00000
      8      -7.9115      2.00000
      9      -7.9115      2.00000
     10      -7.8755      2.00000
     11      -7.8755      2.00000
     12      -7.5510      2.00000
     13       0.2645      2.00000
     14       2.5552      2.00000
     15       4.5063      2.00000
     16       4.5068      2.00000
     17       4.8996      2.00000
     18       4.9002      2.00000
     19       8.9627      0.00000
     20       9.5503      0.00000
     21      13.7023      0.00000
     22      13.9970      0.00000
     23      15.3051      0.00000
     24      15.3051      0.00000

 k-point     9 :       0.1667   -0.0000    0.3750
  band No.  band energies     occupation 
      1     -10.1391      2.00000
      2      -9.8617      2.00000
      3      -8.1610      2.00000
      4      -8.1433      2.00000
      5      -8.1353      2.00000
      6      -8.1142      2.00000
      7      -8.0168      2.00000
      8      -7.9412      2.00000
      9      -7.9121      2.00000
     10      -7.8743      2.00000
     11      -7.8107      2.00000
     12      -7.3211      2.00000
     13       0.3407      2.00000
     14       2.0429      2.00000
     15       3.1756      2.00000
     16       4.0684      2.00000
     17       4.0854      2.00000
     18       4.5586      2.00000
     19       9.7506      0.00000
     20      10.6761      0.00000
     21      12.8198      0.00000
     22      13.3010      0.00000
     23      14.9945      0.00000
     24      15.6970      0.00000

 k-point    10 :       0.3333   -0.0000    0.3750
  band No.  band energies     occupation 
      1      -9.8208      2.00000
      2      -9.6966      2.00000
      3      -8.1478      2.00000
      4      -8.1082      2.00000
      5      -8.0807      2.00000
      6      -8.0272      2.00000
      7      -7.9711      2.00000
      8      -7.9407      2.00000
      9      -7.8883      2.00000
     10      -7.8631      2.00000
     11      -7.2637      2.00000
     12      -6.7398      2.00000
     13      -0.5132      2.00000
     14       0.1673      2.00000
     15       2.3517      2.00000
     16       3.3188      2.00000
     17       3.7909      2.00000
     18       3.9283      2.00000
     19       9.6579      0.00000
     20      10.5873      0.00000
     21      12.5793      0.00000
     22      13.2320      0.00000
     23      15.0449      0.00000
     24      15.5124      0.00000

 k-point    11 :       0.5000   -0.0000    0.3750
  band No.  band energies     occupation 
      1      -9.7093      2.00000
      2      -9.6441      2.00000
      3      -8.1594      2.00000
      4      -8.1165      2.00000
      5      -8.0640      2.00000
      6      -7.9934      2.00000
      7      -7.9530      2.00000
      8      -7.8980      2.00000
      9      -7.8579      2.00000
     10      -7.8478      2.00000
     11      -6.6025      2.00000
     12      -6.3936      2.00000
     13      -1.4720      2.00000
     14      -1.0199      2.00000
     15       2.7112      2.00000
     16       2.9875      2.00000
     17       3.6402      2.00000
     18       3.6699      2.00000
     19       9.3073      0.00000
     20      10.0596      0.00000
     21      12.7250      0.00000
     22      13.1164      0.00000
     23      15.2252      0.00000
     24      15.3221      0.00000

 k-point    12 :       0.1667    0.1667    0.3750
  band No.  band energies     occupation 
      1      -9.8876      2.00000
      2      -9.7292      2.00000
      3      -8.1254      2.00000
      4      -8.1097      2.00000
      5      -8.0890      2.00000
      6      -8.0724      2.00000
      7      -7.9783      2.00000
      8      -7.9769      2.00000
      9      -7.8876      2.00000
     10      -7.8800      2.00000
     11      -7.4538      2.00000
     12      -6.9052      2.00000
     13       0.0040      2.00000
     14       0.8412      2.00000
     15       2.5135      2.00000
     16       2.9682      2.00000
     17       3.6135      2.00000
     18       3.9694      2.00000
     19      10.3706      0.00000
     20      11.3855      0.00000
     21      12.5922      0.00000
     22      12.9998      0.00000
     23      14.5927      0.00000
     24      15.0624      0.00000

 k-point    13 :       0.3333    0.1667    0.3750
  band No.  band energies     occupation 
      1      -9.7017      2.00000
      2      -9.6429      2.00000
      3      -8.1231      2.00000
      4      -8.0984      2.00000
      5      -8.0763      2.00000
      6      -8.0131      2.00000
      7      -7.9577      2.00000
      8      -7.9330      2.00000
      9      -7.8785      2.00000
     10      -7.8684      2.00000
     11      -6.6767      2.00000
     12      -6.3353      2.00000
     13      -1.0247      2.00000
     14      -0.5967      2.00000
     15       1.8208      2.00000
     16       2.6047      2.00000
     17       3.0095      2.00000
     18       3.8667      2.00000
     19      10.3411      0.00000
     20      11.1669      0.00000
     21      12.8069      0.00000
     22      13.4347      0.00000
     23      14.1777      0.00000
     24      14.5992      0.00000

 k-point    14 :       0.3333    0.3333    0.3750
  band No.  band energies     occupation 
      1      -9.6350      2.00000
      2      -9.6350      2.00000
      3      -8.1135      2.00000
      4      -8.0690      2.00000
      5      -8.0690      2.00000
      6      -8.0153      2.00000
      7      -7.9257      2.00000
      8      -7.9243      2.00000
      9      -7.9101      2.00000
     10      -7.9101      2.00000
     11      -6.1912      2.00000
     12      -6.1912      2.00000
     13      -0.8087      2.00000
     14      -0.8087      2.00000
     15       0.6423      2.00000
     16       1.5716      2.00000
     17       3.5639      2.00000
     18       3.5639      2.00000
     19      11.8025      0.00000
     20      11.8025      0.00000
     21      11.8430      0.00000
     22      13.0716      0.00000
     23      14.2423      0.00000
     24      14.2423      0.00000


--------------------------------------------------------------------------------------------------------


 soft charge-density along one line, spin component           1
         0         1         2         3         4         5         6         7         8         9
 total charge-density along one line
 
 pseudopotential strength for first ion, spin component:           1
-11.419   0.000   0.000  -0.000  -0.000   0.458  -0.000  -0.000
  0.000 -11.423   0.000  -0.000  -0.000  -0.000   0.460  -0.000
  0.000   0.000 -11.423  -0.000  -0.000  -0.000  -0.000   0.460
 -0.000  -0.000  -0.000 -11.423   0.000  -0.000   0.000   0.000
 -0.000  -0.000  -0.000   0.000 -11.419   0.000  -0.000   0.000
  0.458  -0.000  -0.000  -0.000   0.000   4.889   0.000   0.000
 -0.000   0.460  -0.000   0.000  -0.000   0.000   4.887  -0.000
 -0.000  -0.000   0.460   0.000   0.000   0.000  -0.000   4.889
 -0.000   0.000   0.000   0.460  -0.000  -0.002  -0.000   0.000
  0.000  -0.000   0.000  -0.000   0.458   0.000  -0.002  -0.000
 -0.000  -0.000   0.000   0.000   0.000   0.000   0.000   0.000
  0.000   0.000   0.000  -0.000  -0.000  -0.000  -0.000   0.000
  0.000  -0.000   0.000   0.000  -0.000  -0.000   0.003  -0.000
  0.000   0.000  -0.000  -0.000  -0.000  -0.000  -0.000  -0.005
 -0.000   0.000  -0.000  -0.000  -0.000  -0.004  -0.000   0.000
 -0.000   0.008  -0.000  -0.000  -0.010   0.000  -0.003   0.000
 -0.000  -0.000  -0.013   0.000   0.000   0.000   0.000   0.005
 -0.010  -0.000   0.000   0.008   0.000   0.004   0.000  -0.000
 total augmentation occupancy for first ion, spin component:           1
  2.012  -0.000   0.000  -0.002  -0.000   0.034  -0.000   0.000  -0.010   0.000  -0.000  -0.000   0.000   0.000   0.018   0.000
 -0.000   2.010  -0.000  -0.000  -0.002  -0.000   0.026  -0.000  -0.000  -0.010   0.000   0.000  -0.012   0.000   0.000  -0.002
  0.000  -0.000   2.014  -0.000   0.000   0.000  -0.000   0.040  -0.000   0.000  -0.001  -0.000   0.000   0.022   0.000   0.000
 -0.002  -0.000  -0.000   2.010   0.000  -0.010  -0.000  -0.000   0.026   0.000  -0.000   0.000   0.000  -0.000  -0.012   0.000
 -0.000  -0.002   0.000   0.000   2.012   0.000  -0.010   0.000   0.000   0.034  -0.000  -0.000   0.018   0.000  -0.000   0.003
  0.034  -0.000   0.000  -0.010   0.000   0.093  -0.000   0.000  -0.035   0.000  -0.000  -0.000   0.000   0.000   0.203   0.000
 -0.000   0.026  -0.000  -0.000  -0.010  -0.000   0.065  -0.000  -0.000  -0.035   0.000   0.000  -0.139   0.000   0.000  -0.003
  0.000  -0.000   0.040  -0.000   0.000   0.000  -0.000   0.118  -0.000   0.000  -0.007  -0.000   0.000   0.244   0.000   0.000
 -0.010  -0.000  -0.000   0.026   0.000  -0.035  -0.000  -0.000   0.065   0.000   0.000  -0.000   0.000   0.000  -0.139   0.000
  0.000  -0.010   0.000   0.000   0.034   0.000  -0.035   0.000   0.000   0.093  -0.000  -0.000   0.203   0.000  -0.000   0.005
 -0.000  -0.000  -0.001  -0.000  -0.000  -0.000   0.000  -0.007   0.000  -0.000   1.319   0.039  -0.000   0.002   0.000  -0.000
 -0.000   0.000  -0.000   0.000  -0.000  -0.000   0.000  -0.000  -0.000  -0.000   0.039   0.002   0.000  -0.000  -0.000   0.000
  0.000  -0.012   0.000   0.000   0.018   0.000  -0.139   0.000   0.000   0.203  -0.000   0.000   1.051   0.000  -0.000   0.023
  0.000  -0.000   0.022  -0.000   0.000   0.000   0.000   0.244   0.000   0.000   0.002  -0.000   0.000   1.031   0.000   0.000
  0.018   0.000   0.000  -0.012  -0.000   0.203   0.000   0.000  -0.139  -0.000   0.000   0.000  -0.000  -0.000   1.051  -0.000
  0.000  -0.002   0.000   0.000   0.003   0.000  -0.003   0.000   0.000   0.005  -0.000   0.000   0.023   0.000  -0.000   0.001
  0.000   0.000   0.004  -0.000   0.000   0.000   0.000   0.006   0.000   0.000   0.000  -0.000   0.000   0.023   0.000   0.000
  0.003   0.000   0.000  -0.002  -0.000   0.005   0.000   0.000  -0.003  -0.000   0.000   0.000  -0.000  -0.000   0.023  -0.000


------------------------ aborting loop because EDIFF is reached ----------------------------------------





 total charge

# of ion       s       p       d       tot
------------------------------------------
    1        0.785   0.886  10.174  11.846
    2        0.785   0.886  10.174  11.846
    3        1.238   2.465   0.000   3.703
    4        1.238   2.465   0.000   3.703
--------------------------------------------------
tot          4.047   6.703  20.349  31.099
 
    CHARGE:  cpu time      0.0022: real time      0.0022
    FORLOC:  cpu time      0.0003: real time      0.0003
    FORNL :  cpu time      0.0030: real time      0.0030
    STRESS:  cpu time      0.0316: real time      0.0319
    FORCOR:  cpu time      0.0029: real time      0.0030
    FORHAR:  cpu time      0.0007: real time      0.0007
    MIXING:  cpu time      0.0003: real time      0.0003
    OFIELD:  cpu time      0.0000: real time      0.0000

  FORCE on cell =-STRESS in cart. coord.  units (eV):
  Direction    XX          YY          ZZ          XY          YZ          ZX
  --------------------------------------------------------------------------------------
  Alpha Z   195.80852   195.80852   195.80852
  Ewald   -1063.92990 -1063.92990 -1035.69270     0.00000    -0.00000    -0.00000
  Hartree   380.92885   380.92885   404.30109    -0.00000    -0.00000    -0.00000
  E(xc)    -201.03389  -201.03381  -201.01799     0.00007     0.00001     0.00000
  Local     121.16587   121.16326    69.46740    -0.00226    -0.00026    -0.00015
  n-local    -4.76987    -5.45768    -5.54187     1.58932     0.07102     0.19559
  augment   247.57347   247.57511   247.69366     0.00143     0.00001     0.00001
  Kinetic   321.11637   328.09430   325.00094    -6.99594    -0.98192    -1.56572
  Fock        0.00000     0.00000     0.00000     0.00000     0.00000     0.00000
  -------------------------------------------------------------------------------------
  Total       0.00403     0.00403     0.01907    -0.00000    -0.00000     0.00000
  in kB       0.13999     0.13999     0.66246    -0.00000    -0.00000     0.00000
  external pressure =        0.31 kB  Pullay stress =        0.00 kB


 VOLUME and BASIS-vectors are now :
 -----------------------------------------------------------------------------
  energy-cutoff  :      400.00
  volume of cell :       46.12
      direct lattice vectors                 reciprocal lattice vectors
     3.197921643 -0.000000000  0.000000000     0.312703096  0.180539217 -0.000000000
    -1.598960822  2.769481382  0.000000000     0.000000000  0.361078434 -0.000000000
     0.000000000  0.000000000  5.207340764    -0.000000000 -0.000000000  0.192036597

  length of vectors
     3.197921643  3.197921643  5.207340764     0.361078434  0.361078434  0.192036597


 FORCES acting on ions
    electron-ion (+dipol)            ewald-force                    non-local-force                 convergence-correction
 -----------------------------------------------------------------------------------------------
   -.240E-04 -.109E-03 -.382E+01   -.916E-07 0.363E-07 0.382E+01   0.201E-16 0.584E-16 0.669E-04   -.859E-08 0.497E-08 -.222E-03
   -.821E-04 -.752E-04 -.382E+01   0.916E-07 -.363E-07 0.382E+01   -.240E-16 -.739E-16 0.669E-04   0.859E-08 -.495E-08 -.222E-03
   0.328E-04 -.112E-04 0.356E+01   -.820E-07 0.332E-07 -.382E+01   -.842E-17 0.158E-16 0.255E+00   0.614E-08 -.358E-08 0.605E-04
   -.262E-04 0.228E-04 0.356E+01   0.820E-07 -.332E-07 -.382E+01   -.727E-17 -.398E-18 0.255E+00   -.617E-08 0.353E-08 0.605E-04
 -----------------------------------------------------------------------------------------------
   -.996E-04 -.172E-03 -.504E+00   0.256E-14 -.158E-14 0.000E+00   -.195E-16 -.187E-18 0.510E+00   -.201E-10 -.363E-10 -.322E-03
 
 
 POSITION                                       TOTAL-FORCE (eV/Angst)
 -----------------------------------------------------------------------------------
      1.59896      0.92316      2.59904        -0.000000      0.000000      0.002288
     -0.00000      1.84632      5.20272         0.000000     -0.000000      0.002288
      1.59896      0.92316      4.56105         0.000000      0.000000     -0.002288
     -0.00000      1.84632      1.95738        -0.000000     -0.000000     -0.002288
 -----------------------------------------------------------------------------------
    total drift:                               -0.000100     -0.000172      0.005808


--------------------------------------------------------------------------------------------------------



  FREE ENERGIE OF THE ION-ELECTRON SYSTEM (eV)
  ---------------------------------------------------
  free  energy   TOTEN  =       -24.30758133 eV

  energy  without entropy=      -24.30758133  energy(sigma->0) =      -24.30758133
 
 d Force =-0.3467528E-07[-0.150E-05, 0.143E-05]  d Energy = 0.2705714E-02-0.271E-02
 d Force =-0.2492839E-02[-0.251E-02,-0.248E-02]  d Ewald  = 0.1018632E+02-0.102E+02


--------------------------------------------------------------------------------------------------------


    POTLOK:  cpu time      0.1291: real time      0.1295


--------------------------------------------------------------------------------------------------------


 stress matrix after NEB project (eV)
      0.00403     -0.00000      0.00000
     -0.00000      0.00403     -0.00000
      0.00000     -0.00000      0.01907
  FORCES: max atom, RMS     0.002288    0.002288
  FORCE total and by dimension    0.004575    0.002288
  Stress total and by dimension    0.019903    0.019069


--------------------------------------------------------------------------------------------------------


  
 reached required accuracy - stopping structural energy minimisation
     LOOP+:  cpu time      1.5234: real time      1.5441
    4ORBIT:  cpu time      0.0000: real time      0.0000



 total charge

# of ion       s       p       d       tot
------------------------------------------
    1        0.785   0.886  10.174  11.846
    2        0.785   0.886  10.174  11.846
    3        1.238   2.465   0.000   3.703
    4        1.238   2.465   0.000   3.703
--------------------------------------------------
tot          4.047   6.703  20.349  31.099
 
 BZINTS: Fermi energy:    5.186614;   36.000000 electrons
         Band energy:-0.169721E+03;  BLOECHL correction:    0.000000

 total amount of memory used by VASP MPI-rank0    35080. kBytes
=======================================================================

   base      :      30000. kBytes
   nonl-proj :       3440. kBytes
   fftplans  :        274. kBytes
   grid      :        702. kBytes
   one-center:         62. kBytes
   wavefun   :        602. kBytes
 
  
  
 General timing and accounting informations for this job:
 ========================================================
  
                  Total CPU time used (sec):        6.162
                            User time (sec):        5.831
                          System time (sec):        0.331
                         Elapsed time (sec):        7.257
  
                   Maximum memory used (kb):      281376.
                   Average memory used (kb):          N/A
  
                          Minor page faults:        23961
                          Major page faults:          132
                 Voluntary context switches:         2842
