PROCAR new format
# of k-points:   14         # of bands:   24         # of ions:    4

 k-point     1 :    0.00000000 0.00000000 0.12500000     weight = 0.01388889

band     1 # energy  -10.64264391 # occ.  2.00000000
 
ion      s      p      d    tot
    1  0.110  0.001  0.003  0.113
    2  0.110  0.001  0.003  0.113
    3  0.226  0.000  0.000  0.226
    4  0.226  0.000  0.000  0.226
tot    0.671  0.002  0.006  0.679
 
band     2 # energy   -9.81221348 # occ.  2.00000000
 
ion      s      p      d    tot
    1  0.024  0.013  0.198  0.236
    2  0.024  0.013  0.198  0.236
    3  0.181  0.000  0.000  0.181
    4  0.181  0.000  0.000  0.181
tot    0.411  0.027  0.397  0.835
 
band     3 # energy   -8.19717439 # occ.  2.00000000
 
ion      s      p      d    tot
    1  0.001  0.000  0.481  0.482
    2  0.001  0.000  0.481  0.482
    3  0.001  0.008  0.000  0.009
    4  0.001  0.008  0.000  0.009
tot    0.003  0.016  0.961  0.981
 
band     4 # energy   -8.19374156 # occ.  2.00000000
 
ion      s      p      d    tot
    1  0.000  0.000  0.484  0.484
    2  0.000  0.000  0.484  0.484
    3  0.000  0.008  0.000  0.008
    4  0.000  0.008  0.000  0.008
tot    0.000  0.017  0.967  0.984
 
band     5 # energy   -8.19373932 # occ.  2.00000000
 
ion      s      p      d    tot
    1  0.000  0.000  0.484  0.484
    2  0.000  0.000  0.484  0.484
    3  0.000  0.008  0.000  0.008
    4  0.000  0.008  0.000  0.008
tot    0.000  0.017  0.967  0.984
 
band     6 # energy   -8.13854663 # occ.  2.00000000
 
ion      s      p      d    tot
    1  0.000  0.000  0.486  0.486
    2  0.000  0.000  0.486  0.486
    3  0.000  0.006  0.000  0.006
    4  0.000  0.006  0.000  0.006
tot    0.000  0.014  0.972  0.985
 
band     7 # energy   -8.13854151 # occ.  2.00000000
 
ion      s      p      d    tot
    1  0.000  0.000  0.486  0.486
    2  0.000  0.000  0.486  0.486
    3  0.000  0.006  0.000  0.006
    4  0.000  0.006  0.000  0.006
tot    0.000  0.014  0.972  0.985
 
band     8 # energy   -7.94353642 # occ.  2.00000000
 
ion      s      p      d    tot
    1  0.000  0.000  0.495  0.495
    2  0.000  0.000  0.495  0.495
    3  0.000  0.000  0.000  0.000
    4  0.000  0.000  0.000  0.000
tot    0.000  0.000  0.989  0.989
 
band     9 # energy   -7.94353634 # occ.  2.00000000
 
ion      s      p      d    tot
    1  0.000  0.000  0.495  0.495
    2  0.000  0.000  0.495  0.495
    3  0.000  0.000  0.000  0.000
    4  0.000  0.000  0.000  0.000
tot    0.000  0.000  0.989  0.989
 
band    10 # energy   -7.85590788 # occ.  2.00000000
 
ion      s      p      d    tot
    1  0.000  0.000  0.497  0.497
    2  0.000  0.000  0.497  0.497
    3  0.000  0.000  0.000  0.000
    4  0.000  0.000  0.000  0.000
tot    0.000  0.000  0.994  0.994
 
band    11 # energy   -7.85590638 # occ.  2.00000000
 
ion      s      p      d    tot
    1  0.000  0.000  0.497  0.497
    2  0.000  0.000  0.497  0.497
    3  0.000  0.000  0.000  0.000
    4  0.000  0.000  0.000  0.000
tot    0.000  0.000  0.994  0.994
 
band    12 # energy   -6.78600104 # occ.  2.00000000
 
ion      s      p      d    tot
    1  0.022  0.015  0.302  0.339
    2  0.022  0.015  0.302  0.339
    3  0.102  0.002  0.000  0.104
    4  0.102  0.002  0.000  0.104
tot    0.247  0.034  0.605  0.886
 
band    13 # energy   -1.48514313 # occ.  2.00000000
 
ion      s      p      d    tot
    1  0.115  0.054  0.009  0.178
    2  0.115  0.054  0.009  0.178
    3  0.010  0.125  0.000  0.135
    4  0.010  0.125  0.000  0.135
tot    0.250  0.358  0.018  0.626
 
band    14 # energy    4.23553566 # occ.  2.00000000
 
ion      s      p      d    tot
    1  0.000  0.067  0.040  0.107
    2  0.000  0.067  0.040  0.107
    3  0.000  0.270  0.000  0.270
    4  0.000  0.270  0.000  0.270
tot    0.000  0.675  0.081  0.755
 
band    15 # energy    4.23605737 # occ.  2.00000000
 
ion      s      p      d    tot
    1  0.000  0.067  0.040  0.107
    2  0.000  0.067  0.040  0.107
    3  0.000  0.270  0.000  0.270
    4  0.000  0.270  0.000  0.270
tot    0.000  0.675  0.081  0.755
 
band    16 # energy    4.68098568 # occ.  2.00000000
 
ion      s      p      d    tot
    1  0.025  0.023  0.054  0.102
    2  0.025  0.023  0.054  0.102
    3  0.030  0.241  0.000  0.271
    4  0.030  0.241  0.000  0.271
tot    0.111  0.528  0.107  0.747
 
band    17 # energy    5.18596348 # occ.  2.00000000
 
ion      s      p      d    tot
    1  0.000  0.024  0.063  0.087
    2  0.000  0.024  0.063  0.087
    3  0.000  0.299  0.000  0.299
    4  0.000  0.299  0.000  0.299
tot    0.000  0.646  0.127  0.773
 
band    18 # energy    5.18654055 # occ.  2.00000000
 
ion      s      p      d    tot
    1  0.000  0.024  0.063  0.087
    2  0.000  0.024  0.063  0.087
    3  0.000  0.299  0.000  0.299
    4  0.000  0.299  0.000  0.299
tot    0.000  0.646  0.127  0.772
 
band    19 # energy    7.50741081 # occ.  0.00000000
 
ion      s      p      d    tot
    1  0.109  0.006  0.005  0.120
    2  0.109  0.006  0.005  0.120
    3  0.150  0.054  0.000  0.203
    4  0.150  0.054  0.000  0.203
tot    0.518  0.119  0.010  0.647
 
band    20 # energy    9.43666908 # occ.  0.00000000
 
ion      s      p      d    tot
    1  0.183  0.040  0.011  0.234
    2  0.183  0.040  0.011  0.234
    3  0.084  0.013  0.000  0.097
    4  0.084  0.013  0.000  0.097
tot    0.535  0.106  0.021  0.663
 
band    21 # energy   14.26404310 # occ.  0.00000000
 
ion      s      p      d    tot
    1  0.014  0.029  0.023  0.066
    2  0.014  0.029  0.023  0.066
    3  0.002  0.227  0.000  0.229
    4  0.002  0.227  0.000  0.229
tot    0.032  0.512  0.046  0.590
 
band    22 # energy   15.07420912 # occ.  0.00000000
 
ion      s      p      d    tot
    1  0.000  0.330  0.020  0.351
    2  0.000  0.330  0.020  0.351
    3  0.000  0.001  0.000  0.001
    4  0.000  0.001  0.000  0.001
tot    0.000  0.662  0.040  0.703
 
band    23 # energy   15.07422925 # occ.  0.00000000
 
ion      s      p      d    tot
    1  0.000  0.330  0.020  0.351
    2  0.000  0.330  0.020  0.351
    3  0.000  0.001  0.000  0.001
    4  0.000  0.001  0.000  0.001
tot    0.000  0.662  0.040  0.703
 
band    24 # energy   15.49140349 # occ.  0.00000000
 
ion      s      p      d    tot
    1  0.014  0.324  0.003  0.342
    2  0.014  0.324  0.003  0.342
    3  0.001  0.010  0.000  0.010
    4  0.001  0.010  0.000  0.010
tot    0.029  0.667  0.007  0.703
 

 k-point     2 :    0.16666667-0.00000000 0.12500000     weight = 0.08333333

band     1 # energy  -10.39884590 # occ.  2.00000000
 
ion      s      p      d    tot
    1  0.092  0.006  0.027  0.125
    2  0.092  0.006  0.028  0.126
    3  0.226  0.000  0.000  0.226
    4  0.226  0.000  0.000  0.226
tot    0.637  0.012  0.055  0.704
 
band     2 # energy   -9.74705430 # occ.  2.00000000
 
ion      s      p      d    tot
    1  0.016  0.015  0.219  0.250
    2  0.016  0.015  0.217  0.248
    3  0.175  0.000  0.000  0.175
    4  0.175  0.000  0.000  0.175
tot    0.382  0.031  0.436  0.849
 
band     3 # energy   -8.17816002 # occ.  2.00000000
 
ion      s      p      d    tot
    1  0.000  0.000  0.413  0.413
    2  0.000  0.000  0.554  0.555
    3  0.000  0.009  0.000  0.009
    4  0.000  0.006  0.000  0.007
tot    0.001  0.015  0.967  0.983
 
band     4 # energy   -8.15894510 # occ.  2.00000000
 
ion      s      p      d    tot
    1  0.000  0.000  0.501  0.501
    2  0.000  0.000  0.469  0.469
    3  0.000  0.007  0.000  0.007
    4  0.000  0.008  0.000  0.008
tot    0.000  0.016  0.969  0.985
 
band     5 # energy   -8.11736082 # occ.  2.00000000
 
ion      s      p      d    tot
    1  0.003  0.000  0.687  0.690
    2  0.002  0.000  0.273  0.275
    3  0.001  0.003  0.000  0.004
    4  0.001  0.010  0.000  0.011
tot    0.006  0.014  0.960  0.980
 
band     6 # energy   -8.08900514 # occ.  2.00000000
 
ion      s      p      d    tot
    1  0.000  0.000  0.456  0.456
    2  0.000  0.000  0.520  0.520
    3  0.000  0.006  0.000  0.006
    4  0.000  0.005  0.000  0.005
tot    0.000  0.012  0.975  0.987
 
band     7 # energy   -8.07998185 # occ.  2.00000000
 
ion      s      p      d    tot
    1  0.006  0.000  0.365  0.371
    2  0.007  0.000  0.566  0.574
    3  0.005  0.010  0.000  0.015
    4  0.004  0.005  0.000  0.009
tot    0.022  0.015  0.931  0.969
 
band     8 # energy   -7.95830111 # occ.  2.00000000
 
ion      s      p      d    tot
    1  0.000  0.000  0.387  0.388
    2  0.001  0.000  0.596  0.597
    3  0.001  0.000  0.000  0.001
    4  0.001  0.000  0.000  0.001
tot    0.002  0.001  0.983  0.986
 
band     9 # energy   -7.94278864 # occ.  2.00000000
 
ion      s      p      d    tot
    1  0.000  0.000  0.523  0.523
    2  0.000  0.000  0.466  0.466
    3  0.000  0.000  0.000  0.000
    4  0.000  0.000  0.000  0.000
tot    0.000  0.000  0.989  0.989
 
band    10 # energy   -7.89163520 # occ.  2.00000000
 
ion      s      p      d    tot
    1  0.001  0.000  0.561  0.562
    2  0.000  0.000  0.424  0.425
    3  0.000  0.000  0.000  0.000
    4  0.001  0.000  0.000  0.002
tot    0.002  0.001  0.985  0.989
 
band    11 # energy   -7.85114281 # occ.  2.00000000
 
ion      s      p      d    tot
    1  0.000  0.000  0.484  0.484
    2  0.000  0.000  0.510  0.510
    3  0.000  0.000  0.000  0.000
    4  0.000  0.000  0.000  0.000
tot    0.000  0.000  0.994  0.994
 
band    12 # energy   -6.59130690 # occ.  2.00000000
 
ion      s      p      d    tot
    1  0.021  0.016  0.288  0.326
    2  0.021  0.016  0.286  0.323
    3  0.115  0.003  0.000  0.117
    4  0.114  0.003  0.000  0.117
tot    0.271  0.038  0.574  0.883
 
band    13 # energy   -1.14285711 # occ.  2.00000000
 
ion      s      p      d    tot
    1  0.121  0.051  0.009  0.182
    2  0.122  0.050  0.010  0.182
    3  0.010  0.129  0.000  0.139
    4  0.010  0.130  0.000  0.140
tot    0.263  0.360  0.019  0.642
 
band    14 # energy    2.58326329 # occ.  2.00000000
 
ion      s      p      d    tot
    1  0.031  0.067  0.031  0.128
    2  0.043  0.074  0.033  0.150
    3  0.015  0.209  0.000  0.224
    4  0.014  0.182  0.000  0.196
tot    0.103  0.532  0.064  0.698
 
band    15 # energy    3.30953093 # occ.  2.00000000
 
ion      s      p      d    tot
    1  0.067  0.027  0.054  0.148
    2  0.051  0.023  0.046  0.119
    3  0.050  0.166  0.000  0.216
    4  0.052  0.209  0.000  0.261
tot    0.219  0.424  0.100  0.744
 
band    16 # energy    3.74048114 # occ.  2.00000000
 
ion      s      p      d    tot
    1  0.000  0.081  0.032  0.113
    2  0.000  0.080  0.033  0.114
    3  0.000  0.253  0.000  0.253
    4  0.000  0.254  0.000  0.254
tot    0.000  0.668  0.065  0.733
 
band    17 # energy    4.81943109 # occ.  2.00000000
 
ion      s      p      d    tot
    1  0.000  0.042  0.048  0.091
    2  0.000  0.039  0.056  0.095
    3  0.000  0.295  0.000  0.295
    4  0.000  0.275  0.000  0.275
tot    0.001  0.651  0.105  0.757
 
band    18 # energy    4.93181174 # occ.  2.00000000
 
ion      s      p      d    tot
    1  0.000  0.037  0.057  0.093
    2  0.000  0.039  0.054  0.093
    3  0.000  0.292  0.000  0.292
    4  0.000  0.290  0.000  0.290
tot    0.000  0.657  0.111  0.768
 
band    19 # energy    8.75449175 # occ.  0.00000000
 
ion      s      p      d    tot
    1  0.077  0.028  0.003  0.109
    2  0.087  0.029  0.003  0.120
    3  0.112  0.100  0.000  0.212
    4  0.110  0.103  0.000  0.213
tot    0.387  0.260  0.007  0.653
 
band    20 # energy   10.71239176 # occ.  0.00000000
 
ion      s      p      d    tot
    1  0.158  0.052  0.012  0.222
    2  0.154  0.047  0.011  0.212
    3  0.056  0.069  0.000  0.125
    4  0.058  0.074  0.000  0.131
tot    0.426  0.242  0.023  0.690
 
band    21 # energy   13.28909800 # occ.  0.00000000
 
ion      s      p      d    tot
    1  0.015  0.080  0.032  0.127
    2  0.058  0.149  0.022  0.230
    3  0.000  0.128  0.000  0.128
    4  0.003  0.088  0.000  0.091
tot    0.076  0.445  0.054  0.576
 
band    22 # energy   13.96467307 # occ.  0.00000000
 
ion      s      p      d    tot
    1  0.066  0.154  0.044  0.264
    2  0.015  0.076  0.050  0.141
    3  0.004  0.077  0.000  0.081
    4  0.000  0.109  0.000  0.109
tot    0.085  0.415  0.094  0.595
 
band    23 # energy   15.46091989 # occ.  0.00000000
 
ion      s      p      d    tot
    1  0.034  0.237  0.016  0.287
    2  0.004  0.236  0.025  0.266
    3  0.003  0.039  0.000  0.042
    4  0.005  0.058  0.000  0.063
tot    0.047  0.570  0.041  0.658
 
band    24 # energy   15.66736383 # occ.  0.00000000
 
ion      s      p      d    tot
    1  0.000  0.334  0.017  0.351
    2  0.000  0.326  0.018  0.344
    3  0.000  0.009  0.000  0.009
    4  0.000  0.022  0.000  0.022
tot    0.000  0.692  0.035  0.726
 

 k-point     3 :    0.33333333-0.00000000 0.12500000     weight = 0.08333333

band     1 # energy   -9.95936515 # occ.  2.00000000
 
ion      s      p      d    tot
    1  0.047  0.014  0.124  0.185
    2  0.046  0.014  0.130  0.190
    3  0.205  0.000  0.000  0.205
    4  0.205  0.000  0.000  0.205
tot    0.503  0.028  0.254  0.785
 
band     2 # energy   -9.65812814 # occ.  2.00000000
 
ion      s      p      d    tot
    1  0.003  0.017  0.257  0.277
    2  0.004  0.017  0.249  0.270
    3  0.163  0.000  0.000  0.163
    4  0.163  0.000  0.000  0.163
tot    0.333  0.034  0.506  0.873
 
band     3 # energy   -8.14582753 # occ.  2.00000000
 
ion      s      p      d    tot
    1  0.000  0.000  0.427  0.428
    2  0.000  0.000  0.540  0.540
    3  0.000  0.007  0.000  0.007
    4  0.000  0.007  0.000  0.007
tot    0.001  0.014  0.967  0.982
 
band     4 # energy   -8.11951914 # occ.  2.00000000
 
ion      s      p      d    tot
    1  0.000  0.000  0.496  0.496
    2  0.000  0.000  0.476  0.477
    3  0.000  0.006  0.000  0.006
    4  0.000  0.007  0.000  0.007
tot    0.000  0.013  0.973  0.986
 
band     5 # energy   -8.05307677 # occ.  2.00000000
 
ion      s      p      d    tot
    1  0.001  0.000  0.751  0.753
    2  0.001  0.000  0.219  0.220
    3  0.001  0.004  0.000  0.005
    4  0.000  0.004  0.000  0.004
tot    0.003  0.008  0.970  0.981
 
band     6 # energy   -7.99271462 # occ.  2.00000000
 
ion      s      p      d    tot
    1  0.000  0.000  0.445  0.445
    2  0.000  0.000  0.538  0.538
    3  0.000  0.004  0.000  0.004
    4  0.000  0.004  0.000  0.004
tot    0.000  0.009  0.983  0.992
 
band     7 # energy   -7.99095819 # occ.  2.00000000
 
ion      s      p      d    tot
    1  0.000  0.000  0.179  0.179
    2  0.000  0.000  0.803  0.803
    3  0.000  0.001  0.000  0.001
    4  0.000  0.001  0.000  0.002
tot    0.001  0.002  0.982  0.985
 
band     8 # energy   -7.94556766 # occ.  2.00000000
 
ion      s      p      d    tot
    1  0.000  0.000  0.593  0.594
    2  0.001  0.000  0.389  0.390
    3  0.001  0.002  0.000  0.003
    4  0.000  0.001  0.000  0.001
tot    0.002  0.003  0.982  0.988
 
band     9 # energy   -7.90242312 # occ.  2.00000000
 
ion      s      p      d    tot
    1  0.000  0.000  0.565  0.565
    2  0.000  0.000  0.425  0.425
    3  0.000  0.000  0.000  0.000
    4  0.000  0.000  0.000  0.000
tot    0.000  0.001  0.991  0.992
 
band    10 # energy   -7.84054424 # occ.  2.00000000
 
ion      s      p      d    tot
    1  0.000  0.000  0.464  0.464
    2  0.000  0.000  0.530  0.530
    3  0.000  0.000  0.000  0.000
    4  0.000  0.000  0.000  0.000
tot    0.000  0.000  0.994  0.994
 
band    11 # energy   -7.50852344 # occ.  2.00000000
 
ion      s      p      d    tot
    1  0.027  0.006  0.360  0.393
    2  0.027  0.006  0.371  0.404
    3  0.046  0.007  0.000  0.053
    4  0.049  0.007  0.000  0.056
tot    0.150  0.026  0.731  0.906
 
band    12 # energy   -6.18179539 # occ.  2.00000000
 
ion      s      p      d    tot
    1  0.009  0.023  0.264  0.296
    2  0.007  0.025  0.253  0.285
    3  0.147  0.001  0.000  0.149
    4  0.145  0.001  0.000  0.147
tot    0.309  0.051  0.517  0.877
 
band    13 # energy   -0.71597338 # occ.  2.00000000
 
ion      s      p      d    tot
    1  0.184  0.026  0.008  0.218
    2  0.177  0.011  0.016  0.204
    3  0.008  0.125  0.000  0.133
    4  0.005  0.146  0.000  0.152
tot    0.374  0.308  0.024  0.706
 
band    14 # energy    0.57442065 # occ.  2.00000000
 
ion      s      p      d    tot
    1  0.005  0.073  0.019  0.097
    2  0.075  0.094  0.018  0.187
    3  0.019  0.203  0.000  0.222
    4  0.029  0.098  0.000  0.127
tot    0.128  0.468  0.037  0.634
 
band    15 # energy    1.26338566 # occ.  2.00000000
 
ion      s      p      d    tot
    1  0.112  0.053  0.039  0.204
    2  0.041  0.052  0.028  0.120
    3  0.027  0.115  0.000  0.142
    4  0.020  0.213  0.000  0.233
tot    0.200  0.433  0.067  0.700
 
band    16 # energy    2.92367475 # occ.  2.00000000
 
ion      s      p      d    tot
    1  0.000  0.100  0.017  0.118
    2  0.000  0.100  0.019  0.118
    3  0.000  0.232  0.000  0.232
    4  0.000  0.233  0.000  0.233
tot    0.000  0.666  0.036  0.702
 
band    17 # energy    4.04500102 # occ.  2.00000000
 
ion      s      p      d    tot
    1  0.003  0.068  0.033  0.105
    2  0.005  0.063  0.042  0.110
    3  0.000  0.264  0.000  0.264
    4  0.001  0.246  0.000  0.247
tot    0.009  0.642  0.076  0.726
 
band    18 # energy    4.41073391 # occ.  2.00000000
 
ion      s      p      d    tot
    1  0.000  0.060  0.043  0.102
    2  0.000  0.061  0.041  0.102
    3  0.000  0.276  0.000  0.276
    4  0.000  0.275  0.000  0.275
tot    0.000  0.671  0.084  0.755
 
band    19 # energy    9.84888749 # occ.  0.00000000
 
ion      s      p      d    tot
    1  0.039  0.086  0.021  0.146
    2  0.119  0.058  0.006  0.184
    3  0.079  0.056  0.000  0.135
    4  0.069  0.062  0.000  0.130
tot    0.305  0.262  0.028  0.595
 
band    20 # energy   10.92000714 # occ.  0.00000000
 
ion      s      p      d    tot
    1  0.181  0.052  0.029  0.263
    2  0.080  0.088  0.044  0.213
    3  0.026  0.026  0.000  0.052
    4  0.043  0.027  0.000  0.070
tot    0.331  0.193  0.074  0.597
 
band    21 # energy   12.11064342 # occ.  0.00000000
 
ion      s      p      d    tot
    1  0.005  0.041  0.052  0.098
    2  0.086  0.053  0.037  0.177
    3  0.013  0.149  0.000  0.162
    4  0.003  0.125  0.000  0.128
tot    0.107  0.368  0.089  0.565
 
band    22 # energy   13.49196405 # occ.  0.00000000
 
ion      s      p      d    tot
    1  0.143  0.054  0.018  0.215
    2  0.054  0.058  0.036  0.148
    3  0.001  0.139  0.000  0.140
    4  0.002  0.169  0.000  0.171
tot    0.199  0.420  0.055  0.674
 
band    23 # energy   15.34284536 # occ.  0.00000000
 
ion      s      p      d    tot
    1  0.017  0.111  0.050  0.179
    2  0.033  0.076  0.042  0.151
    3  0.004  0.153  0.000  0.157
    4  0.007  0.127  0.000  0.134
tot    0.062  0.467  0.092  0.621
 
band    24 # energy   15.90968610 # occ.  0.00000000
 
ion      s      p      d    tot
    1  0.000  0.269  0.042  0.311
    2  0.000  0.257  0.048  0.305
    3  0.000  0.018  0.000  0.018
    4  0.000  0.026  0.000  0.026
tot    0.000  0.570  0.090  0.660
 

 k-point     4 :    0.50000000-0.00000000 0.12500000     weight = 0.04166667

band     1 # energy   -9.79107863 # occ.  2.00000000
 
ion      s      p      d    tot
    1  0.021  0.015  0.202  0.239
    2  0.021  0.015  0.202  0.239
    3  0.180  0.000  0.000  0.181
    4  0.180  0.000  0.000  0.181
tot    0.403  0.030  0.404  0.838
 
band     2 # energy   -9.63367856 # occ.  2.00000000
 
ion      s      p      d    tot
    1  0.001  0.017  0.263  0.280
    2  0.001  0.017  0.263  0.280
    3  0.159  0.000  0.000  0.159
    4  0.159  0.000  0.000  0.159
tot    0.319  0.034  0.526  0.879
 
band     3 # energy   -8.15005189 # occ.  2.00000000
 
ion      s      p      d    tot
    1  0.000  0.000  0.482  0.483
    2  0.000  0.000  0.482  0.483
    3  0.000  0.006  0.000  0.006
    4  0.000  0.006  0.000  0.006
tot    0.001  0.014  0.964  0.979
 
band     4 # energy   -8.11540898 # occ.  2.00000000
 
ion      s      p      d    tot
    1  0.000  0.000  0.487  0.487
    2  0.000  0.000  0.487  0.487
    3  0.000  0.006  0.000  0.006
    4  0.000  0.006  0.000  0.006
tot    0.000  0.012  0.973  0.985
 
band     5 # energy   -8.02024173 # occ.  2.00000000
 
ion      s      p      d    tot
    1  0.001  0.000  0.487  0.488
    2  0.001  0.000  0.487  0.488
    3  0.001  0.002  0.000  0.003
    4  0.001  0.002  0.000  0.003
tot    0.002  0.005  0.975  0.982
 
band     6 # energy   -8.01761734 # occ.  2.00000000
 
ion      s      p      d    tot
    1  0.001  0.000  0.489  0.490
    2  0.001  0.000  0.489  0.490
    3  0.000  0.002  0.000  0.002
    4  0.000  0.002  0.000  0.002
tot    0.002  0.004  0.979  0.984
 
band     7 # energy   -7.95016661 # occ.  2.00000000
 
ion      s      p      d    tot
    1  0.000  0.000  0.493  0.494
    2  0.000  0.000  0.493  0.494
    3  0.000  0.003  0.000  0.003
    4  0.000  0.003  0.000  0.003
tot    0.000  0.007  0.987  0.994
 
band     8 # energy   -7.91530906 # occ.  2.00000000
 
ion      s      p      d    tot
    1  0.000  0.000  0.495  0.495
    2  0.000  0.000  0.495  0.495
    3  0.000  0.002  0.000  0.002
    4  0.000  0.002  0.000  0.002
tot    0.000  0.003  0.990  0.993
 
band     9 # energy   -7.86107160 # occ.  2.00000000
 
ion      s      p      d    tot
    1  0.000  0.000  0.497  0.497
    2  0.000  0.000  0.497  0.497
    3  0.000  0.000  0.000  0.000
    4  0.000  0.000  0.000  0.000
tot    0.000  0.001  0.993  0.994
 
band    10 # energy   -7.83111920 # occ.  2.00000000
 
ion      s      p      d    tot
    1  0.000  0.000  0.497  0.497
    2  0.000  0.000  0.497  0.497
    3  0.000  0.000  0.000  0.000
    4  0.000  0.000  0.000  0.000
tot    0.000  0.000  0.995  0.995
 
band    11 # energy   -6.71463983 # occ.  2.00000000
 
ion      s      p      d    tot
    1  0.024  0.013  0.304  0.341
    2  0.024  0.013  0.304  0.341
    3  0.103  0.002  0.000  0.106
    4  0.103  0.002  0.000  0.106
tot    0.255  0.030  0.609  0.894
 
band    12 # energy   -6.22190983 # occ.  2.00000000
 
ion      s      p      d    tot
    1  0.002  0.031  0.242  0.275
    2  0.002  0.031  0.242  0.275
    3  0.150  0.003  0.000  0.152
    4  0.150  0.003  0.000  0.152
tot    0.303  0.068  0.483  0.855
 
band    13 # energy   -1.28842187 # occ.  2.00000000
 
ion      s      p      d    tot
    1  0.158  0.027  0.013  0.198
    2  0.158  0.027  0.013  0.198
    3  0.008  0.128  0.000  0.136
    4  0.008  0.128  0.000  0.136
tot    0.332  0.310  0.026  0.668
 
band    14 # energy   -0.21734074 # occ.  2.00000000
 
ion      s      p      d    tot
    1  0.145  0.034  0.016  0.195
    2  0.145  0.034  0.016  0.195
    3  0.017  0.142  0.000  0.159
    4  0.017  0.142  0.000  0.159
tot    0.323  0.353  0.031  0.707
 
band    15 # energy    1.33274698 # occ.  2.00000000
 
ion      s      p      d    tot
    1  0.043  0.089  0.013  0.145
    2  0.043  0.089  0.013  0.145
    3  0.004  0.181  0.000  0.185
    4  0.004  0.181  0.000  0.185
tot    0.094  0.539  0.027  0.660
 
band    16 # energy    2.56621636 # occ.  2.00000000
 
ion      s      p      d    tot
    1  0.000  0.108  0.011  0.119
    2  0.000  0.108  0.011  0.119
    3  0.000  0.226  0.000  0.226
    4  0.000  0.226  0.000  0.226
tot    0.000  0.668  0.022  0.689
 
band    17 # energy    3.23040270 # occ.  2.00000000
 
ion      s      p      d    tot
    1  0.003  0.083  0.031  0.118
    2  0.003  0.083  0.031  0.118
    3  0.001  0.220  0.000  0.221
    4  0.001  0.220  0.000  0.221
tot    0.009  0.605  0.063  0.677
 
band    18 # energy    4.15825159 # occ.  2.00000000
 
ion      s      p      d    tot
    1  0.000  0.070  0.035  0.105
    2  0.000  0.070  0.035  0.105
    3  0.000  0.269  0.000  0.269
    4  0.000  0.269  0.000  0.269
tot    0.000  0.678  0.071  0.748
 
band    19 # energy   10.09762408 # occ.  0.00000000
 
ion      s      p      d    tot
    1  0.085  0.058  0.037  0.181
    2  0.085  0.058  0.037  0.181
    3  0.056  0.046  0.000  0.102
    4  0.056  0.046  0.000  0.102
tot    0.283  0.208  0.075  0.566
 
band    20 # energy   10.28216066 # occ.  0.00000000
 
ion      s      p      d    tot
    1  0.100  0.080  0.050  0.230
    2  0.100  0.080  0.050  0.230
    3  0.025  0.009  0.000  0.034
    4  0.025  0.009  0.000  0.034
tot    0.248  0.178  0.100  0.527
 
band    21 # energy   11.93906254 # occ.  0.00000000
 
ion      s      p      d    tot
    1  0.074  0.037  0.042  0.152
    2  0.074  0.037  0.042  0.152
    3  0.018  0.124  0.000  0.142
    4  0.018  0.124  0.000  0.142
tot    0.183  0.322  0.083  0.588
 
band    22 # energy   13.49499965 # occ.  0.00000000
 
ion      s      p      d    tot
    1  0.110  0.026  0.019  0.155
    2  0.110  0.026  0.019  0.155
    3  0.008  0.196  0.000  0.204
    4  0.008  0.196  0.000  0.204
tot    0.237  0.444  0.038  0.718
 
band    23 # energy   15.51853729 # occ.  0.00000000
 
ion      s      p      d    tot
    1  0.020  0.051  0.050  0.121
    2  0.020  0.051  0.050  0.121
    3  0.000  0.188  0.000  0.188
    4  0.000  0.188  0.000  0.188
tot    0.040  0.477  0.101  0.618
 
band    24 # energy   15.71824597 # occ.  0.00000000
 
ion      s      p      d    tot
    1  0.000  0.226  0.060  0.286
    2  0.000  0.226  0.060  0.286
    3  0.000  0.022  0.000  0.022
    4  0.000  0.022  0.000  0.022
tot    0.000  0.497  0.119  0.616
 

 k-point     5 :    0.16666667 0.16666667 0.12500000     weight = 0.08333333

band     1 # energy  -10.05747129 # occ.  2.00000000
 
ion      s      p      d    tot
    1  0.059  0.013  0.094  0.165
    2  0.059  0.013  0.094  0.165
    3  0.214  0.000  0.000  0.215
    4  0.214  0.000  0.000  0.215
tot    0.547  0.025  0.187  0.760
 
band     2 # energy   -9.67529230 # occ.  2.00000000
 
ion      s      p      d    tot
    1  0.006  0.017  0.245  0.268
    2  0.006  0.017  0.245  0.268
    3  0.166  0.000  0.000  0.166
    4  0.166  0.000  0.000  0.166
tot    0.344  0.034  0.490  0.867
 
band     3 # energy   -8.14301687 # occ.  2.00000000
 
ion      s      p      d    tot
    1  0.000  0.000  0.485  0.485
    2  0.000  0.000  0.485  0.485
    3  0.000  0.007  0.000  0.007
    4  0.000  0.007  0.000  0.007
tot    0.000  0.014  0.969  0.984
 
band     4 # energy   -8.12801035 # occ.  2.00000000
 
ion      s      p      d    tot
    1  0.000  0.000  0.486  0.486
    2  0.000  0.000  0.486  0.486
    3  0.000  0.007  0.000  0.007
    4  0.000  0.007  0.000  0.007
tot    0.000  0.014  0.972  0.986
 
band     5 # energy   -8.06368989 # occ.  2.00000000
 
ion      s      p      d    tot
    1  0.000  0.000  0.488  0.488
    2  0.000  0.000  0.488  0.488
    3  0.000  0.004  0.000  0.004
    4  0.000  0.004  0.000  0.004
tot    0.001  0.009  0.975  0.985
 
band     6 # energy   -8.04619326 # occ.  2.00000000
 
ion      s      p      d    tot
    1  0.002  0.000  0.484  0.486
    2  0.002  0.000  0.484  0.486
    3  0.001  0.004  0.000  0.005
    4  0.001  0.004  0.000  0.005
tot    0.005  0.009  0.969  0.983
 
band     7 # energy   -7.97667362 # occ.  2.00000000
 
ion      s      p      d    tot
    1  0.000  0.000  0.492  0.493
    2  0.000  0.000  0.492  0.493
    3  0.000  0.001  0.000  0.001
    4  0.000  0.001  0.000  0.001
tot    0.000  0.003  0.985  0.988
 
band     8 # energy   -7.94352489 # occ.  2.00000000
 
ion      s      p      d    tot
    1  0.000  0.000  0.493  0.493
    2  0.000  0.000  0.493  0.493
    3  0.000  0.001  0.000  0.001
    4  0.000  0.001  0.000  0.001
tot    0.001  0.001  0.985  0.987
 
band     9 # energy   -7.90803819 # occ.  2.00000000
 
ion      s      p      d    tot
    1  0.000  0.000  0.495  0.495
    2  0.000  0.000  0.495  0.495
    3  0.000  0.000  0.000  0.000
    4  0.000  0.000  0.000  0.000
tot    0.000  0.001  0.989  0.990
 
band    10 # energy   -7.87753272 # occ.  2.00000000
 
ion      s      p      d    tot
    1  0.003  0.000  0.485  0.488
    2  0.003  0.000  0.485  0.488
    3  0.003  0.002  0.000  0.005
    4  0.003  0.002  0.000  0.005
tot    0.010  0.005  0.969  0.985
 
band    11 # energy   -7.68899718 # occ.  2.00000000
 
ion      s      p      d    tot
    1  0.020  0.003  0.409  0.433
    2  0.020  0.003  0.409  0.433
    3  0.028  0.006  0.000  0.034
    4  0.028  0.006  0.000  0.034
tot    0.097  0.018  0.818  0.934
 
band    12 # energy   -6.26904886 # occ.  2.00000000
 
ion      s      p      d    tot
    1  0.013  0.021  0.265  0.299
    2  0.013  0.021  0.265  0.299
    3  0.138  0.002  0.000  0.140
    4  0.138  0.002  0.000  0.140
tot    0.303  0.047  0.529  0.879
 
band    13 # energy   -0.65227742 # occ.  2.00000000
 
ion      s      p      d    tot
    1  0.158  0.032  0.010  0.199
    2  0.158  0.032  0.010  0.199
    3  0.009  0.136  0.000  0.146
    4  0.009  0.136  0.000  0.146
tot    0.334  0.336  0.020  0.690
 
band    14 # energy    1.37371943 # occ.  2.00000000
 
ion      s      p      d    tot
    1  0.036  0.090  0.020  0.146
    2  0.036  0.090  0.020  0.146
    3  0.003  0.176  0.000  0.178
    4  0.003  0.176  0.000  0.178
tot    0.078  0.531  0.040  0.648
 
band    15 # energy    1.48590501 # occ.  2.00000000
 
ion      s      p      d    tot
    1  0.061  0.043  0.042  0.146
    2  0.061  0.043  0.042  0.146
    3  0.051  0.153  0.000  0.204
    4  0.051  0.153  0.000  0.204
tot    0.225  0.391  0.083  0.700
 
band    16 # energy    2.80120696 # occ.  2.00000000
 
ion      s      p      d    tot
    1  0.034  0.083  0.021  0.139
    2  0.034  0.083  0.021  0.139
    3  0.005  0.213  0.000  0.219
    4  0.005  0.213  0.000  0.219
tot    0.079  0.593  0.042  0.714
 
band    17 # energy    4.13305846 # occ.  2.00000000
 
ion      s      p      d    tot
    1  0.002  0.061  0.044  0.107
    2  0.002  0.061  0.044  0.107
    3  0.001  0.257  0.000  0.258
    4  0.001  0.257  0.000  0.258
tot    0.006  0.637  0.089  0.732
 
band    18 # energy    4.37813864 # occ.  2.00000000
 
ion      s      p      d    tot
    1  0.001  0.058  0.042  0.101
    2  0.001  0.058  0.042  0.101
    3  0.000  0.271  0.000  0.271
    4  0.000  0.271  0.000  0.271