<?xml version="1.0" encoding="ISO-8859-1"?>
<modeling>
 <generator>
  <i name="program" type="string">vasp </i>
  <i name="version" type="string">6.3.1  </i>
  <i name="subversion" type="string">04May22 (build Jun 07 2022 20:23:04) complex                          parallel </i>
  <i name="platform" type="string">LinuxIFC </i>
  <i name="date" type="string">2024 04 20 </i>
  <i name="time" type="string">16:34:20 </i>
 </generator>
 <incar>
  <i type="string" name="PREC">Normal</i>
  <i type="string" name="ALGO">Normal</i>
  <i type="int" name="NELM">   100</i>
  <i type="int" name="IBRION">     2</i>
  <i name="EDIFF">      0.00000010</i>
  <i name="EDIFFG">     -0.00500000</i>
  <i type="int" name="NSW">    20</i>
  <i type="int" name="ISIF">     3</i>
  <i name="ENCUT">    400.00000000</i>
  <i type="logical" name="LREAL"> F  </i>
  <i type="int" name="ISMEAR">    -5</i>
  <i name="SIGMA">      0.10000000</i>
  <i type="logical" name="LWAVE"> F  </i>
  <i type="logical" name="LCHARG"> F  </i>
  <i type="int" name="LORBIT">    10</i>
  <i type="logical" name="LASPH"> T  </i>
 </incar>
 <primitive_cell>
  <structure name="primitive_cell" >
   <crystal>
    <varray name="basis" >
     <v>       3.18893040       0.00000000       0.00000000 </v>
     <v>      -1.59446520       2.76169474       0.00000000 </v>
     <v>       0.00000000       0.00000000       5.19235725 </v>
    </varray>
    <i name="volume">     45.72832351 </i>
    <varray name="rec_basis" >
     <v>       0.31358477       0.18104825       0.00000000 </v>
     <v>       0.00000000       0.36209650       0.00000000 </v>
     <v>       0.00000000       0.00000000       0.19259075 </v>
    </varray>
   </crystal>
   <varray name="positions" >
    <v>       0.66666667       0.33333333       0.49908371 </v>
    <v>       0.33333333       0.66666667       0.99908371 </v>
    <v>       0.66666667       0.33333333       0.87591629 </v>
    <v>       0.33333333       0.66666667       0.37591629 </v>
   </varray>
  </structure>
  <varray name="primitive_index" >
   <v type="int" >        1 </v>
   <v type="int" >        2 </v>
   <v type="int" >        3 </v>
   <v type="int" >        4 </v>
  </varray>
 </primitive_cell>
 <kpoints>
  <generation param="Gamma">
   <v type="int" name="divisions">       6        6        4 </v>
   <v name="usershift">      0.00000000       0.00000000       0.50000000 </v>
   <v name="genvec1">      0.16666667      -0.00000000       0.00000000 </v>
   <v name="genvec2">      0.00000000       0.16666667       0.00000000 </v>
   <v name="genvec3">      0.00000000       0.00000000       0.25000000 </v>
   <v name="shift">      0.00000000       0.00000000       0.50000000 </v>
  </generation>
  <varray name="kpointlist" >
   <v>       0.00000000       0.00000000       0.12500000 </v>
   <v>       0.16666667      -0.00000000       0.12500000 </v>
   <v>       0.33333333      -0.00000000       0.12500000 </v>
   <v>       0.50000000      -0.00000000       0.12500000 </v>
   <v>       0.16666667       0.16666667       0.12500000 </v>
   <v>       0.33333333       0.16666667       0.12500000 </v>
   <v>       0.33333333       0.33333333       0.12500000 </v>
   <v>       0.00000000       0.00000000       0.37500000 </v>
   <v>       0.16666667      -0.00000000       0.37500000 </v>
   <v>       0.33333333      -0.00000000       0.37500000 </v>
   <v>       0.50000000      -0.00000000       0.37500000 </v>
   <v>       0.16666667       0.16666667       0.37500000 </v>
   <v>       0.33333333       0.16666667       0.37500000 </v>
   <v>       0.33333333       0.33333333       0.37500000 </v>
  </varray>
  <varray name="weights" >
   <v>       0.01388889 </v>
   <v>       0.08333333 </v>
   <v>       0.08333333 </v>
   <v>       0.04166667 </v>
   <v>       0.08333333 </v>
   <v>       0.16666667 </v>
   <v>       0.02777778 </v>
   <v>       0.01388889 </v>
   <v>       0.08333333 </v>
   <v>       0.08333333 </v>
   <v>       0.04166667 </v>
   <v>       0.08333333 </v>
   <v>       0.16666667 </v>
   <v>       0.02777778 </v>
  </varray>
  <varray name="tetrahedronlist"  type="int" >
   <v type="int" >       12        6        6        7        7 </v>
   <v type="int" >       24        6        6        6        7 </v>
   <v type="int" >       12        9       10       12       12 </v>
   <v type="int" >        6        9        9       12       12 </v>
   <v type="int" >       12        9        9        9       12 </v>
   <v type="int" >       12        9       10       10       12 </v>
   <v type="int" >       12        9        9       10       12 </v>
   <v type="int" >       12        4        6        6        6 </v>
   <v type="int" >        6        4        4        6        6 </v>
   <v type="int" >       12       10       11       13       13 </v>
   <v type="int" >       12       10       12       13       13 </v>
   <v type="int" >       12       10       12       12       13 </v>
   <v type="int" >       12       10       11       11       13 </v>
   <v type="int" >       12       10       10       11       13 </v>
   <v type="int" >       12       10       10       12       13 </v>
   <v type="int" >       12        3        3        4        6 </v>
   <v type="int" >       12        3        4        6        6 </v>
   <v type="int" >       12        3        4        4        6 </v>
   <v type="int" >       12       11       13       13       13 </v>
   <v type="int" >        6       11       11       13       13 </v>
   <v type="int" >        6        5        5        6        6 </v>
   <v type="int" >       12        3        5        5        6 </v>
   <v type="int" >       12        3        3        5        6 </v>
   <v type="int" >       12        5        6        6        6 </v>
   <v type="int" >       12        3        5        6        6 </v>
   <v type="int" >       12        8        9        9        9 </v>
   <v type="int" >        6        8        8        9        9 </v>
   <v type="int" >       16        6        6        7       13 </v>
   <v type="int" >        8        5        6        6       13 </v>
   <v type="int" >        4        5        6       12       13 </v>
   <v type="int" >        8        6        7       13       14 </v>
   <v type="int" >       16        6       13       13       14 </v>
   <v type="int" >        8        6       12       13       13 </v>
   <v type="int" >        8        3        9       10       12 </v>
   <v type="int" >        4        3        5        9       12 </v>
   <v type="int" >        8        2        3        5        9 </v>
   <v type="int" >        8        6        7       13       13 </v>
   <v type="int" >        8        7       13       13       14 </v>
   <v type="int" >        8        6       10       12       13 </v>
   <v type="int" >        4        3        6       10       12 </v>
   <v type="int" >        4        6        6       12       13 </v>
   <v type="int" >        4        5        6        6       12 </v>
   <v type="int" >        8        3        5        6       12 </v>
   <v type="int" >        8        2        2        5        9 </v>
   <v type="int" >        4        2        5        9        9 </v>
   <v type="int" >        4        3        5        9       10 </v>
   <v type="int" >        8        5        9       10       12 </v>
   <v type="int" >        4        5        9        9       12 </v>
   <v type="int" >        8        3       10       12       13 </v>
   <v type="int" >        4        3        6       12       13 </v>
   <v type="int" >        4        2        3        9       12 </v>
   <v type="int" >        8        2        3        5       12 </v>
   <v type="int" >        8        6        6        7       14 </v>
   <v type="int" >        8        6        6       13       14 </v>
   <v type="int" >        8        6       10       11       13 </v>
   <v type="int" >        4        5        6       10       12 </v>
   <v type="int" >        4        4        6       10       11 </v>
   <v type="int" >        8        3        4        6       10 </v>
   <v type="int" >        8        3        5        6       10 </v>
   <v type="int" >        8        4        6        6       13 </v>
   <v type="int" >        4        4        6       11       13 </v>
   <v type="int" >        8        6       11       13       13 </v>
   <v type="int" >        4        6        6       11       13 </v>
   <v type="int" >        4        3        6       10       11 </v>
   <v type="int" >        8        3        4        6       11 </v>
   <v type="int" >        4        4        6        6       11 </v>
   <v type="int" >        4        4        6       10       13 </v>
   <v type="int" >        8        4       10       11       13 </v>
   <v type="int" >        8        5       10       12       13 </v>
   <v type="int" >        4        5        6       10       13 </v>
   <v type="int" >        4        2        5        9       10 </v>
   <v type="int" >        8        2        3        5       10 </v>
   <v type="int" >        8        2        8        9        9 </v>
   <v type="int" >        8        2        9        9       12 </v>
   <v type="int" >        4        2        5        9       12 </v>
   <v type="int" >        4        1        2        8        9 </v>
   <v type="int" >        8        1        2        2        9 </v>
   <v type="int" >        4        2        2        8        9 </v>
   <v type="int" >        4        1        2        2        8 </v>
   <v type="int" >        8        3        4        6       13 </v>
   <v type="int" >        4        3        4       10       13 </v>
   <v type="int" >        4        4        6       13       13 </v>
   <v type="int" >        4        4       11       13       13 </v>
   <v type="int" >       12        2        3        3        5 </v>
   <v type="int" >       12        2        3        5        5 </v>
   <v type="int" >       12        2        2        3        5 </v>
   <v type="int" >       24       13       13       13       14 </v>
   <v type="int" >       12       12       13       13       13 </v>
   <v type="int" >        6       12       12       13       13 </v>
   <v type="int" >       12       13       13       14       14 </v>
   <v type="int" >        6        2        2        5        5 </v>
   <v type="int" >       12        2        2        2        5 </v>
   <v type="int" >        8        3        5        6       13 </v>
   <v type="int" >        4        5        6       13       13 </v>
   <v type="int" >        4        3        5       10       13 </v>
   <v type="int" >        4        5       12       13       13 </v>
   <v type="int" >        4        3        6       11       13 </v>
   <v type="int" >        8        3       10       11       13 </v>
   <v type="int" >        4        3        4       11       13 </v>
   <v type="int" >        4        3        5       12       13 </v>
   <v type="int" >        8        2        9       10       12 </v>
   <v type="int" >        4        2        3       10       12 </v>
   <v type="int" >        4        2        2        9       12 </v>
   <v type="int" >        4        2        2        5       12 </v>
   <v type="int" >        4        1        8        9        9 </v>
   <v type="int" >        4        1        2        9        9 </v>
   <v type="int" >       12        1        2        2        2 </v>
   <v type="int" >        6        1        1        2        2 </v>
   <v type="int" >        4        2        5       10       12 </v>
  </varray>
  <i name="volumeweight">      0.00115741 </i>
 </kpoints>
 <parameters>
  <separator name="general" >
   <i type="string" name="SYSTEM">unknown system</i>
   <i type="logical" name="LCOMPAT"> F  </i>
  </separator>
  <separator name="electronic" >
   <i type="string" name="PREC">normal</i>
   <i name="ENMAX">    400.00000000</i>
   <i name="ENAUG">    627.11200000</i>
   <i name="EDIFF">      0.00000010</i>
   <i type="int" name="IALGO">    38</i>
   <i type="int" name="IWAVPR">    11</i>
   <i type="int" name="NBANDS">    24</i>
   <i type="int" name="NBANDSLOW">    -1</i>
   <i type="int" name="NBANDSHIGH">    -1</i>
   <i name="NELECT">     36.00000000</i>
   <i type="int" name="TURBO">     0</i>
   <i type="int" name="IRESTART">     0</i>
   <i type="int" name="NREBOOT">     0</i>
   <i type="int" name="NMIN">     0</i>
   <i name="EREF">      0.00000000</i>
   <separator name="electronic smearing" >
    <i type="int" name="ISMEAR">    -5</i>
    <i name="SIGMA">      0.10000000</i>
    <i name="KSPACING">      0.50000000</i>
    <i type="logical" name="KGAMMA"> T  </i>
    <i type="logical" name="KBLOWUP"> T  </i>
   </separator>
   <separator name="electronic projectors" >
    <i type="logical" name="LREAL"> F  </i>
    <v name="ROPT">      0.00000000      0.00000000</v>
    <i type="int" name="LMAXPAW">  -100</i>
    <i type="int" name="LMAXMIX">     2</i>
    <i type="logical" name="NLSPLINE"> F  </i>
   </separator>
   <separator name="electronic startup" >
    <i type="int" name="ISTART">     0</i>
    <i type="int" name="ICHARG">     2</i>
    <i type="int" name="INIWAV">     1</i>
   </separator>
   <separator name="electronic spin" >
    <i type="int" name="ISPIN">     1</i>
    <i type="logical" name="LNONCOLLINEAR"> F  </i>
    <v name="MAGMOM">      1.00000000      1.00000000      1.00000000      1.00000000</v>
    <i name="NUPDOWN">     -1.00000000</i>
    <i type="logical" name="LSORBIT"> F  </i>
    <v name="SAXIS">      0.00000000      0.00000000      1.00000000</v>
    <i type="logical" name="LSPIRAL"> F  </i>
    <v name="QSPIRAL">      0.00000000      0.00000000      0.00000000</v>
    <i type="logical" name="LZEROZ"> F  </i>
   </separator>
   <separator name="electronic exchange-correlation" >
    <i type="logical" name="LASPH"> T  </i>
    <i type="logical" name="LMETAGGA"> F  </i>
   </separator>
   <separator name="electronic convergence" >
    <i type="int" name="NELM">   100</i>
    <i type="int" name="NELMDL">    -5</i>
    <i type="int" name="NELMIN">     2</i>
    <i name="ENINI">    400.00000000</i>
    <separator name="electronic convergence detail" >
     <i type="logical" name="LDIAG"> T  </i>
     <i type="logical" name="LSUBROT"> F  </i>
     <i name="WEIMIN">      0.00100000</i>
     <i name="EBREAK">      0.00000000</i>
     <i name="DEPER">      0.30000000</i>
     <i type="int" name="NRMM">     4</i>
     <i name="TIME">      0.40000000</i>
    </separator>
   </separator>
   <separator name="electronic mixer" >
    <i name="AMIX">      0.40000000</i>
    <i name="BMIX">      1.00000000</i>
    <i name="AMIN">      0.10000000</i>
    <i name="AMIX_MAG">      1.60000000</i>
    <i name="BMIX_MAG">      1.00000000</i>
    <separator name="electronic mixer details" >
     <i type="int" name="IMIX">     4</i>
     <i type="logical" name="MIXFIRST"> F  </i>
     <i type="int" name="MAXMIX">   -45</i>
     <i name="WC">    100.00000000</i>
     <i type="int" name="INIMIX">     1</i>
     <i type="int" name="MIXPRE">     1</i>
     <i type="int" name="MREMOVE">     5</i>
    </separator>
   </separator>
   <separator name="electronic dipolcorrection" >
    <i type="logical" name="LDIPOL"> F  </i>
    <i type="logical" name="LMONO"> F  </i>
    <i type="int" name="IDIPOL">     0</i>
    <i name="EPSILON">      1.00000000</i>
    <v name="DIPOL">   -100.00000000   -100.00000000   -100.00000000</v>
    <i name="EFIELD">      0.00000000</i>
   </separator>
  </separator>
  <separator name="grids" >
   <i type="int" name="NGX">    16</i>
   <i type="int" name="NGY">    16</i>
   <i type="int" name="NGZ">    28</i>
   <i type="int" name="NGXF">    32</i>
   <i type="int" name="NGYF">    32</i>
   <i type="int" name="NGZF">    56</i>
   <i type="logical" name="ADDGRID"> F  </i>
  </separator>
  <separator name="ionic" >
   <i type="int" name="NSW">    20</i>
   <i type="int" name="IBRION">     2</i>
   <i type="int" name="MDALGO">     0</i>
   <i type="int" name="ISIF">     3</i>
   <i name="PSTRESS">      0.00000000</i>
   <i name="EDIFFG">     -0.00500000</i>
   <i type="int" name="NFREE">     1</i>
   <i name="POTIM">      0.50000000</i>
   <i name="SMASS">     -3.00000000</i>
   <i name="SCALEE">      1.00000000</i>
  </separator>
  <separator name="ionic md" >
   <i name="TEBEG">      0.00010000</i>
   <i name="TEEND">      0.00010000</i>
   <i type="int" name="NBLOCK">     1</i>
   <i type="int" name="KBLOCK">    20</i>
   <i type="int" name="NPACO">   256</i>
   <i name="APACO">     10.00000000</i>
  </separator>
  <separator name="symmetry" >
   <i type="int" name="ISYM">     2</i>
   <i name="SYMPREC">      0.00001000</i>
  </separator>
  <separator name="dos" >
   <i type="int" name="LORBIT">    10</i>
   <v name="RWIGS">     -1.00000000     -1.00000000</v>
   <i type="int" name="NEDOS">   301</i>
   <i name="EMIN">     10.00000000</i>
   <i name="EMAX">    -10.00000000</i>
   <i name="EFERMI">      0.00000000</i>
  </separator>
  <separator name="writing" >
   <i type="int" name="NWRITE">     2</i>
   <i type="logical" name="LWAVE"> F  </i>
   <i type="logical" name="LDOWNSAMPLE"> F  </i>
   <i type="logical" name="LCHARG"> F  </i>
   <i type="logical" name="LPARD"> F  </i>
   <i type="logical" name="LVTOT"> F  </i>
   <i type="logical" name="LVHAR"> F  </i>
   <i type="logical" name="LELF"> F  </i>
   <i type="logical" name="LOPTICS"> F  </i>
   <v name="STM">      0.00000000      0.00000000      0.00000000      0.00000000      0.00000000      0.00000000      0.00000000</v>
  </separator>
  <separator name="performance" >
   <i type="int" name="NPAR">     8</i>
   <i type="int" name="NSIM">     4</i>
   <i type="int" name="NBLK">    -1</i>
   <i type="logical" name="LPLANE"> T  </i>
   <i type="logical" name="LSCALAPACK"> T  </i>
   <i type="logical" name="LSCAAWARE"> F  </i>
   <i type="logical" name="LSCALU"> F  </i>
   <i type="logical" name="LASYNC"> F  </i>
   <i type="logical" name="LORBITALREAL"> F  </i>
  </separator>
  <separator name="miscellaneous" >
   <i type="int" name="IDIOT">     3</i>
   <i type="int" name="PHON_NSTRUCT">    -1</i>
   <i type="logical" name="LMUSIC"> F  </i>
   <v name="POMASS">     69.72300000     14.00100000</v>
   <v name="DARWINR">      0.00000000      0.00000000</v>
   <v name="DARWINV">      1.00000000      1.00000000</v>
   <i type="logical" name="LCORR"> T  </i>
  </separator>
  <i type="logical" name="GGA_COMPAT"> T  </i>
  <i type="logical" name="LBERRY"> F  </i>
  <i type="int" name="ICORELEVEL">     0</i>
  <i type="logical" name="LDAU"> F  </i>
  <i type="int" name="I_CONSTRAINED_M">     0</i>
  <separator name="electronic exchange-correlation" >
   <i type="string" name="GGA">--</i>
   <i type="int" name="VOSKOWN">     0</i>
   <i type="logical" name="LHFCALC"> F  </i>
   <i type="string" name="PRECFOCK"></i>
   <i type="logical" name="LSYMGRAD"> F  </i>
   <i type="logical" name="LHFONE"> F  </i>
   <i type="logical" name="LRHFCALC"> F  </i>
   <i type="logical" name="LTHOMAS"> F  </i>
   <i type="logical" name="LMODELHF"> F  </i>
   <i type="logical" name="LFOCKACE"> F  </i>
   <i name="ENCUT4O">     -1.00000000</i>
   <i type="int" name="EXXOEP">     0</i>
   <i type="int" name="FOURORBIT">     0</i>
   <i name="AEXX">      0.00000000</i>
   <i name="HFALPHA">      0.00000000</i>
   <i name="MCALPHA">      0.00000000</i>
   <i name="ALDAX">      1.00000000</i>
   <i name="AGGAX">      1.00000000</i>
   <i name="ALDAC">      1.00000000</i>
   <i name="AGGAC">      1.00000000</i>
   <i type="int" name="NKREDX">     1</i>
   <i type="int" name="NKREDY">     1</i>
   <i type="int" name="NKREDZ">     1</i>
   <i type="logical" name="SHIFTRED"> F  </i>
   <i type="logical" name="ODDONLY"> F  </i>
   <i type="logical" name="EVENONLY"> F  </i>
   <i type="int" name="LMAXFOCK">     0</i>
   <i type="int" name="NMAXFOCKAE">     0</i>
   <i type="logical" name="LFOCKAEDFT"> F  </i>
   <i name="HFSCREEN">      0.00000000</i>
   <i name="HFSCREENC">      0.00000000</i>
   <i type="int" name="NBANDSGWLOW">     0</i>
  </separator>
  <separator name="vdW DFT" >
   <i type="logical" name="LUSE_VDW"> F  </i>
   <i name="Zab_VDW">     -0.84910000</i>
   <i name="PARAM1">      0.12340000</i>
   <i name="PARAM2">      1.00000000</i>
   <i name="PARAM3">      0.00000000</i>
  </separator>
  <separator name="model GW" >
   <i type="int" name="MODEL_GW">     0</i>
   <i name="MODEL_EPS0">      6.85924853</i>
   <i name="MODEL_ALPHA">      1.00000000</i>
  </separator>
  <separator name="linear response parameters" >
   <i type="logical" name="LEPSILON"> F  </i>
   <i type="logical" name="LRPA"> F  </i>
   <i type="logical" name="LNABLA"> F  </i>
   <i type="logical" name="LVEL"> F  </i>
   <i name="CSHIFT">      0.10000000</i>
   <i name="OMEGAMAX">     -1.00000000</i>
   <i name="DEG_THRESHOLD">      0.00200000</i>
   <i name="RTIME">     -0.10000000</i>
   <i name="WPLASMAI">      0.00000000</i>
   <v name="DFIELD">      0.00000000      0.00000000      0.00000000</v>
   <v name="WPLASMA">      0.00000000      0.00000000      0.00000000      0.00000000      0.00000000      0.00000000      0.00000000      0.00000000      0.00000000</v>
  </separator>
  <separator name="orbital magnetization" >
   <i type="logical" name="NUCIND"> F  </i>
   <v name="MAGPOS">      0.00000000      0.00000000      0.00000000</v>
   <i type="logical" name="LNICSALL"> T  </i>
   <i type="logical" name="ORBITALMAG"> F  </i>
   <i type="logical" name="LMAGBLOCH"> F  </i>
   <i type="logical" name="LCHIMAG"> F  </i>
   <i type="logical" name="LGAUGE"> T  </i>
   <i type="int" name="MAGATOM">     0</i>
   <v name="MAGDIPOL">      0.00000000      0.00000000      0.00000000</v>
   <v name="AVECCONST">      0.00000000      0.00000000      0.00000000</v>
  </separator>
  <separator name="response functions" >
   <i type="logical" name="LFINITE_TEMPERATURE"> F  </i>
   <i type="logical" name="LADDER"> F  </i>
   <i type="logical" name="LRPAFORCE"> F  </i>
   <i type="logical" name="LFXC"> F  </i>
   <i type="logical" name="LHARTREE"> T  </i>
   <i type="int" name="IBSE">     0</i>
   <v type="int" name="KPOINT">    -1     0     0     0</v>
   <i type="logical" name="LTCTC"> F  </i>
   <i type="logical" name="LTCTE"> F  </i>
   <i type="logical" name="LTETE"> F  </i>
   <i type="logical" name="LTRIPLET"> F  </i>
   <i type="logical" name="LFXCEPS"> F  </i>
   <i type="logical" name="LFXHEG"> F  </i>
   <i type="int" name="NATURALO">     2</i>
   <i type="logical" name="LHOLEGF"> F  </i>
   <i type="logical" name="L2ORDER"> F  </i>
   <i type="logical" name="LDMP1"> F  </i>
   <i type="logical" name="LMP2LT"> F  </i>
   <i type="logical" name="LSMP2LT"> F  </i>
   <i type="logical" name="LGWLF"> F  </i>
   <i name="ENCUTGW">     -2.00000000</i>
   <i name="ENCUTGWSOFT">     -2.00000000</i>
   <i name="ENCUTLF">     -1.00000000</i>
   <i type="logical" name="LESF_SPLINES"> F  </i>
   <i type="int" name="LMAXMP2">    -1</i>
   <i name="SCISSOR">      0.00000000</i>
   <i type="int" name="NOMEGA">     0</i>
   <i type="int" name="NOMEGAR">     0</i>
   <i type="int" name="NBANDSGW">    -1</i>
   <i type="int" name="NBANDSO">    -1</i>
   <i type="int" name="NBANDSV">    -1</i>
   <i type="int" name="NELMGW">     1</i>
   <i type="int" name="NELMHF">     1</i>
   <i type="int" name="DIM">     3</i>
   <i type="int" name="IESPILON">     4</i>
   <i type="int" name="ANTIRES">     0</i>
   <i name="OMEGAMAX">    -30.00000000</i>
   <i name="OMEGAMIN">    -30.00000000</i>
   <i name="OMEGATL">   -200.00000000</i>
   <i type="int" name="OMEGAGRID">     0</i>
   <i name="CSHIFT">     -0.10000000</i>
   <i type="logical" name="LSELFENERGY"> F  </i>
   <i type="logical" name="LSPECTRAL"> F  </i>
   <i type="logical" name="LSPECTRALGW"> F  </i>
   <i type="logical" name="LSINGLES"> F  </i>
   <i type="logical" name="LFERMIGW"> F  </i>
   <i type="logical" name="ODDONLYGW"> F  </i>
   <i type="logical" name="EVENONLYGW"> F  </i>
   <i type="int" name="NKREDLFX">     1</i>
   <i type="int" name="NKREDLFY">     1</i>
   <i type="int" name="NKREDLFZ">     1</i>
   <i type="int" name="MAXMEM">  2800</i>
   <i type="int" name="TELESCOPE">     0</i>
   <i type="int" name="NTAUPAR">    -1</i>
   <i type="int" name="NOMEGAPAR">    -1</i>
   <i name="DAMP_NEWTON">      0.80000001</i>
   <i name="LAMBDA">      1.00000000</i>
  </separator>
  <separator name="External order field" >
   <i name="OFIELD_KAPPA">      0.00000000</i>
   <v name="OFIELD_K">      0.00000000      0.00000000      0.00000000</v>
   <i name="OFIELD_Q6_NEAR">      0.00000000</i>
   <i name="OFIELD_Q6_FAR">      0.00000000</i>
   <i name="OFIELD_A">      0.00000000</i>
  </separator>
  <separator name="optional k-points parameters" >
   <i type="int" name="KPOINTS_OPT_MODE">     1</i>
   <i type="logical" name="LKPOINTS_OPT"> F  </i>
  </separator>
 </parameters>
 <atominfo>
  <atoms>       4 </atoms>
  <types>       2 </types>
  <array name="atoms" >
   <dimension dim="1">ion</dimension>
   <field type="string">element</field>
   <field type="int">atomtype</field>
   <set>
    <rc><c>Ga</c><c>   1</c></rc>
    <rc><c>Ga</c><c>   1</c></rc>
    <rc><c>N </c><c>   2</c></rc>
    <rc><c>N </c><c>   2</c></rc>
   </set>
  </array>
  <array name="atomtypes" >
   <dimension dim="1">type</dimension>
   <field type="int">atomspertype</field>
   <field type="string">element</field>
   <field>mass</field>
   <field>valence</field>
   <field type="string">pseudopotential</field>
   <set>
    <rc><c>   2</c><c>Ga</c><c>     69.72300000</c><c>     13.00000000</c><c>  PAW_PBE Ga_d 06Jul2010                </c></rc>
    <rc><c>   2</c><c>N </c><c>     14.00100000</c><c>      5.00000000</c><c>  PAW_PBE N 08Apr2002                   </c></rc>
   </set>
  </array>
 </atominfo>
 <structure name="initialpos" >
  <crystal>
   <varray name="basis" >
    <v>       3.18893040       0.00000000       0.00000000 </v>
    <v>      -1.59446520       2.76169474       0.00000000 </v>
    <v>       0.00000000       0.00000000       5.19235725 </v>
   </varray>
   <i name="volume">     45.72832351 </i>
   <varray name="rec_basis" >
    <v>       0.31358477       0.18104825       0.00000000 </v>
    <v>       0.00000000       0.36209650       0.00000000 </v>
    <v>       0.00000000       0.00000000       0.19259075 </v>
   </varray>
  </crystal>
  <varray name="positions" >
   <v>       0.66666667       0.33333333       0.49908371 </v>
   <v>       0.33333333       0.66666667       0.99908371 </v>
   <v>       0.66666667       0.33333333       0.87591629 </v>
   <v>       0.33333333       0.66666667       0.37591629 </v>
  </varray>
 </structure>
 <calculation>
  <scstep>
   <time name="dav">    0.02    0.02</time>
   <time name="total">    0.16    0.16</time>
   <energy>
    <i name="alphaZ">    197.48248217 </i>
    <i name="ewald">  -3172.53630689 </i>
    <i name="hartreedc">  -1156.54557726 </i>
    <i name="XCdc">    128.81625065 </i>
    <i name="pawpsdc">   3616.17691320 </i>
    <i name="pawaedc">  -4285.66495278 </i>
    <i name="eentropy">      0.00000000 </i>
    <i name="bandstr">     98.18201418 </i>
    <i name="atom">   4826.58925392 </i>
    <i name="e_fr_energy">    252.50007720 </i>
    <i name="e_wo_entrp">    252.50007720 </i>
    <i name="e_0_energy">    252.50007720 </i>
   </energy>
  </scstep>
  <scstep>
   <time name="dav">    0.02    0.02</time>
   <time name="total">    0.02    0.02</time>
   <energy>
    <i name="e_fr_energy">      2.76327918 </i>
    <i name="e_wo_entrp">      2.76327918 </i>
    <i name="e_0_energy">      2.76327918 </i>
   </energy>
  </scstep>
  <scstep>
   <time name="dav">    0.02    0.02</time>
   <time name="total">    0.02    0.02</time>
   <energy>
    <i name="e_fr_energy">    -27.35220567 </i>
    <i name="e_wo_entrp">    -27.35220567 </i>
    <i name="e_0_energy">    -27.35220567 </i>
   </energy>
  </scstep>
  <scstep>
   <time name="dav">    0.02    0.02</time>
   <time name="total">    0.03    0.03</time>
   <energy>
    <i name="e_fr_energy">    -28.26530947 </i>
    <i name="e_wo_entrp">    -28.26530947 </i>
    <i name="e_0_energy">    -28.26530947 </i>
   </energy>
  </scstep>
  <scstep>
   <time name="dav">    0.02    0.02</time>
   <time name="total">    0.02    0.02</time>
   <energy>
    <i name="e_fr_energy">    -28.27854601 </i>
    <i name="e_wo_entrp">    -28.27854601 </i>
    <i name="e_0_energy">    -28.27854601 </i>
   </energy>
  </scstep>
  <scstep>
   <time name="dav">    0.03    0.03</time>
   <time name="total">    0.16    0.16</time>
   <energy>
    <i name="e_fr_energy">    -24.22391022 </i>
    <i name="e_wo_entrp">    -24.22391022 </i>
    <i name="e_0_energy">    -24.22391022 </i>
   </energy>
  </scstep>
  <scstep>
   <time name="dav">    0.02    0.02</time>
   <time name="total">    0.15    0.15</time>
   <energy>
    <i name="e_fr_energy">    -24.32280049 </i>
    <i name="e_wo_entrp">    -24.32280049 </i>
    <i name="e_0_energy">    -24.32280049 </i>
   </energy>
  </scstep>
  <scstep>
   <time name="dav">    0.02    0.02</time>
   <time name="total">    0.16    0.16</time>
   <energy>
    <i name="e_fr_energy">    -24.32014665 </i>
    <i name="e_wo_entrp">    -24.32014665 </i>
    <i name="e_0_energy">    -24.32014665 </i>
   </energy>
  </scstep>
  <scstep>
   <time name="dav">    0.03    0.03</time>
   <time name="total">    0.16    0.16</time>
   <energy>
    <i name="e_fr_energy">    -24.30478618 </i>
    <i name="e_wo_entrp">    -24.30478618 </i>
    <i name="e_0_energy">    -24.30478618 </i>
   </energy>
  </scstep>
  <scstep>
   <time name="dav">    0.02    0.02</time>
   <time name="total">    0.15    0.15</time>
   <energy>
    <i name="e_fr_energy">    -24.30563215 </i>
    <i name="e_wo_entrp">    -24.30563215 </i>
    <i name="e_0_energy">    -24.30563215 </i>
   </energy>
  </scstep>
  <scstep>
   <time name="dav">    0.02    0.02</time>
   <time name="total">    0.16    0.16</time>
   <energy>
    <i name="e_fr_energy">    -24.30543102 </i>
    <i name="e_wo_entrp">    -24.30543102 </i>
    <i name="e_0_energy">    -24.30543102 </i>
   </energy>
  </scstep>
  <scstep>
   <time name="dav">    0.02    0.02</time>
   <time name="total">    0.15    0.15</time>
   <energy>
    <i name="e_fr_energy">    -24.30544393 </i>
    <i name="e_wo_entrp">    -24.30544393 </i>
    <i name="e_0_energy">    -24.30544393 </i>
   </energy>
  </scstep>
  <scstep>
   <time name="dav">    0.02    0.02</time>
   <time name="total">    0.16    0.16</time>
   <energy>
    <i name="e_fr_energy">    -24.30544581 </i>
    <i name="e_wo_entrp">    -24.30544581 </i>
    <i name="e_0_energy">    -24.30544581 </i>
   </energy>
  </scstep>
  <scstep>
   <time name="dav">    0.02    0.02</time>
   <time name="total">    0.16    0.16</time>
   <energy>
    <i name="e_fr_energy">    -24.30544375 </i>
    <i name="e_wo_entrp">    -24.30544375 </i>
    <i name="e_0_energy">    -24.30544375 </i>
   </energy>
  </scstep>
  <scstep>
   <time name="dav">    0.02    0.02</time>
   <time name="total">    0.16    0.16</time>
   <energy>
    <i name="e_fr_energy">    -24.30544383 </i>
    <i name="e_wo_entrp">    -24.30544383 </i>
    <i name="e_0_energy">    -24.30544383 </i>
   </energy>
  </scstep>
  <scstep>
   <time name="dav">    0.01    0.01</time>
   <time name="total">    0.14    0.14</time>
   <energy>
    <i name="alphaZ">    197.48248217 </i>
    <i name="ewald">  -3172.53630689 </i>
    <i name="hartreedc">  -1161.57992456 </i>
    <i name="XCdc">    130.04811975 </i>
    <i name="pawpsdc">   4489.57780166 </i>
    <i name="pawaedc">  -5166.98865548 </i>
    <i name="eentropy">      0.00000000 </i>
    <i name="bandstr">   -166.89821440 </i>
    <i name="atom">   4826.58925392 </i>
    <i name="e_fr_energy">    -24.30544383 </i>
    <i name="e_wo_entrp">    -24.30544383 </i>
    <i name="e_0_energy">    -24.30544383 </i>
   </energy>
  </scstep>
  <structure>
   <crystal>
    <varray name="basis" >
     <v>       3.18893040       0.00000000       0.00000000 </v>
     <v>      -1.59446520       2.76169474       0.00000000 </v>
     <v>       0.00000000       0.00000000       5.19235725 </v>
    </varray>
    <i name="volume">     45.72832351 </i>
    <varray name="rec_basis" >
     <v>       0.31358477       0.18104825       0.00000000 </v>
     <v>       0.00000000       0.36209650       0.00000000 </v>
     <v>       0.00000000       0.00000000       0.19259075 </v>
    </varray>
   </crystal>
   <varray name="positions" >
    <v>       0.66666667       0.33333333       0.49908371 </v>
    <v>       0.33333333       0.66666667       0.99908371 </v>
    <v>       0.66666667       0.33333333       0.87591629 </v>
    <v>       0.33333333       0.66666667       0.37591629 </v>
   </varray>
  </structure>
  <varray name="forces" >
   <v>      -0.00000000      -0.00000000       0.00640363 </v>
   <v>       0.00000000       0.00000000       0.00640363 </v>
   <v>      -0.00000000       0.00000000      -0.00640363 </v>
   <v>       0.00000000      -0.00000000      -0.00640363 </v>
  </varray>
  <varray name="stress" >
   <v>      17.53225480      -0.00000000       0.00000000 </v>
   <v>      -0.00000000      17.53225480       0.00000000 </v>
   <v>       0.00000000       0.00000000      17.94371474 </v>
  </varray>
  <energy>
   <i name="e_fr_energy">    -24.30544383 </i>
   <i name="e_wo_entrp">    -24.30544383 </i>
   <i name="e_0_energy">    -24.30544383 </i>
  </energy>
  <time name="totalsc">    2.26    2.28</time>
 </calculation>
 <calculation>
  <scstep>
   <time name="dav">    0.02    0.02</time>
   <time name="total">    0.15    0.15</time>
   <energy>
    <i name="alphaZ">    193.92243394 </i>
    <i name="ewald">  -3153.36401123 </i>
    <i name="hartreedc">  -1154.55103930 </i>
    <i name="XCdc">    129.07180490 </i>
    <i name="pawpsdc">   4489.47098684 </i>
    <i name="pawaedc">  -5166.88225927 </i>
    <i name="eentropy">      0.00000000 </i>
    <i name="bandstr">   -188.65261234 </i>
    <i name="atom">   4826.58925392 </i>
    <i name="e_fr_energy">    -24.39544253 </i>
    <i name="e_wo_entrp">    -24.39544253 </i>
    <i name="e_0_energy">    -24.39544253 </i>
   </energy>
  </scstep>
  <scstep>
   <time name="dav">    0.02    0.02</time>
   <time name="total">    0.16    0.16</time>
   <energy>
    <i name="e_fr_energy">    -24.32698225 </i>
    <i name="e_wo_entrp">    -24.32698225 </i>
    <i name="e_0_energy">    -24.32698225 </i>
   </energy>
  </scstep>
  <scstep>
   <time name="dav">    0.02    0.02</time>
   <time name="total">    0.16    0.16</time>
   <energy>
    <i name="e_fr_energy">    -24.30668460 </i>
    <i name="e_wo_entrp">    -24.30668460 </i>
    <i name="e_0_energy">    -24.30668460 </i>
   </energy>
  </scstep>
  <scstep>
   <time name="dav">    0.02    0.02</time>
   <time name="total">    0.15    0.15</time>
   <energy>
    <i name="e_fr_energy">    -24.30607415 </i>
    <i name="e_wo_entrp">    -24.30607415 </i>
    <i name="e_0_energy">    -24.30607415 </i>
   </energy>
  </scstep>
  <scstep>
   <time name="dav">    0.02    0.02</time>
   <time name="total">    0.16    0.16</time>
   <energy>
    <i name="e_fr_energy">    -24.30548538 </i>
    <i name="e_wo_entrp">    -24.30548538 </i>
    <i name="e_0_energy">    -24.30548538 </i>
   </energy>
  </scstep>
  <scstep>
   <time name="dav">    0.02    0.02</time>
   <time name="total">    0.16    0.16</time>
   <energy>
    <i name="e_fr_energy">    -24.30487415 </i>
    <i name="e_wo_entrp">    -24.30487415 </i>
    <i name="e_0_energy">    -24.30487415 </i>
   </energy>
  </scstep>
  <scstep>
   <time name="dav">    0.02    0.02</time>
   <time name="total">    0.15    0.15</time>
   <energy>
    <i name="e_fr_energy">    -24.30487564 </i>
    <i name="e_wo_entrp">    -24.30487564 </i>
    <i name="e_0_energy">    -24.30487564 </i>
   </energy>
  </scstep>
  <scstep>
   <time name="dav">    0.02    0.02</time>
   <time name="total">    0.15    0.16</time>
   <energy>
    <i name="e_fr_energy">    -24.30487552 </i>
    <i name="e_wo_entrp">    -24.30487552 </i>
    <i name="e_0_energy">    -24.30487552 </i>
   </energy>
  </scstep>
  <scstep>
   <time name="dav">    0.02    0.02</time>
   <time name="total">    0.15    0.15</time>
   <energy>
    <i name="e_fr_energy">    -24.30487565 </i>
    <i name="e_wo_entrp">    -24.30487565 </i>
    <i name="e_0_energy">    -24.30487565 </i>
   </energy>
  </scstep>
  <scstep>
   <time name="dav">    0.01    0.01</time>
   <time name="total">    0.15    0.15</time>
   <energy>
    <i name="alphaZ">    193.92243394 </i>
    <i name="ewald">  -3153.36401123 </i>
    <i name="hartreedc">  -1171.35644517 </i>
    <i name="XCdc">    129.82090162 </i>
    <i name="pawpsdc">   4448.70462829 </i>
    <i name="pawaedc">  -5125.71502925 </i>
    <i name="eentropy">      0.00000000 </i>
    <i name="bandstr">   -172.90660773 </i>
    <i name="atom">   4826.58925392 </i>
    <i name="e_fr_energy">    -24.30487561 </i>
    <i name="e_wo_entrp">    -24.30487561 </i>
    <i name="e_0_energy">    -24.30487561 </i>
   </energy>
  </scstep>
  <structure>
   <crystal>
    <varray name="basis" >
     <v>       3.20817588      -0.00000000       0.00000000 </v>
     <v>      -1.60408794       2.77836181       0.00000000 </v>
     <v>       0.00000000       0.00000000       5.22442901 </v>
    </varray>
    <i name="volume">     46.56780883 </i>
    <varray name="rec_basis" >
     <v>       0.31170361       0.17996216      -0.00000000 </v>
     <v>       0.00000000       0.35992432      -0.00000000 </v>
     <v>      -0.00000000      -0.00000000       0.19140848 </v>
    </varray>
   </crystal>
   <varray name="positions" >
    <v>       0.66666667       0.33333333       0.49914321 </v>
    <v>       0.33333333       0.66666667       0.99914321 </v>
    <v>       0.66666667       0.33333333       0.87585679 </v>
    <v>       0.33333333       0.66666667       0.37585679 </v>
   </varray>
  </structure>
  <varray name="forces" >
   <v>       0.00000000      -0.00000000      -0.00218197 </v>
   <v>      -0.00000000       0.00000000      -0.00218197 </v>
   <v>       0.00000000       0.00000000       0.00218197 </v>
   <v>       0.00000000       0.00000000       0.00218197 </v>
  </varray>
  <varray name="stress" >
   <v>     -19.22432824       0.00000000       0.00000000 </v>
   <v>       0.00000000     -19.22432824      -0.00000000 </v>
   <v>       0.00000000       0.00000000     -18.58970127 </v>
  </varray>
  <energy>
   <i name="e_fr_energy">    -24.30487561 </i>
   <i name="e_wo_entrp">    -24.30487561 </i>
   <i name="e_0_energy">    -24.30487561 </i>
  </energy>
  <time name="totalsc">    1.84    1.86</time>
 </calculation>
 <calculation>
  <scstep>
   <time name="dav">    0.02    0.02</time>
   <time name="total">    0.15    0.15</time>
   <energy>
    <i name="alphaZ">    195.80852238 </i>
    <i name="ewald">  -3163.55032840 </i>
    <i name="hartreedc">  -1175.14562170 </i>
    <i name="XCdc">    130.34303396 </i>
    <i name="pawpsdc">   4448.72331156 </i>
    <i name="pawaedc">  -5125.73423183 </i>
    <i name="eentropy">      0.00000000 </i>
    <i name="bandstr">   -161.36751174 </i>
    <i name="atom">   4826.58925392 </i>
    <i name="e_fr_energy">    -24.33357184 </i>
    <i name="e_wo_entrp">    -24.33357184 </i>
    <i name="e_0_energy">    -24.33357184 </i>
   </energy>
  </scstep>
  <scstep>
   <time name="dav">    0.02    0.02</time>
   <time name="total">    0.15    0.16</time>
   <energy>
    <i name="e_fr_energy">    -24.31376590 </i>
    <i name="e_wo_entrp">    -24.31376590 </i>
    <i name="e_0_energy">    -24.31376590 </i>
   </energy>
  </scstep>
  <scstep>
   <time name="dav">    0.02    0.02</time>
   <time name="total">    0.16    0.16</time>
   <energy>
    <i name="e_fr_energy">    -24.30811996 </i>
    <i name="e_wo_entrp">    -24.30811996 </i>
    <i name="e_0_energy">    -24.30811996 </i>
   </energy>
  </scstep>
  <scstep>
   <time name="dav">    0.02    0.02</time>
   <time name="total">    0.15    0.15</time>
   <energy>
    <i name="e_fr_energy">    -24.30792041 </i>
    <i name="e_wo_entrp">    -24.30792041 </i>
    <i name="e_0_energy">    -24.30792041 </i>
   </energy>
  </scstep>
  <scstep>
   <time name="dav">    0.02    0.02</time>
   <time name="total">    0.15    0.15</time>
   <energy>
    <i name="e_fr_energy">    -24.30770555 </i>
    <i name="e_wo_entrp">    -24.30770555 </i>
    <i name="e_0_energy">    -24.30770555 </i>
   </energy>
  </scstep>
  <scstep>
   <time name="dav">    0.02    0.02</time>
   <time name="total">    0.16    0.16</time>
   <energy>
    <i name="e_fr_energy">    -24.30758087 </i>
    <i name="e_wo_entrp">    -24.30758087 </i>
    <i name="e_0_energy">    -24.30758087 </i>
   </energy>
  </scstep>
  <scstep>
   <time name="dav">    0.02    0.02</time>
   <time name="total">    0.15    0.15</time>
   <energy>
    <i name="e_fr_energy">    -24.30758133 </i>
    <i name="e_wo_entrp">    -24.30758133 </i>
    <i name="e_0_energy">    -24.30758133 </i>
   </energy>
  </scstep>
  <scstep>
   <time name="dav">    0.02    0.02</time>
   <time name="total">    0.15    0.15</time>
   <energy>
    <i name="alphaZ">    195.80852238 </i>
    <i name="ewald">  -3163.55032840 </i>
    <i name="hartreedc">  -1166.15412886 </i>
    <i name="XCdc">    129.94121185 </i>
    <i name="pawpsdc">   4470.26244280 </i>
    <i name="pawaedc">  -5147.48339377 </i>
    <i name="eentropy">      0.00000000 </i>
    <i name="bandstr">   -169.72116127 </i>
    <i name="atom">   4826.58925392 </i>
    <i name="e_fr_energy">    -24.30758133 </i>
    <i name="e_wo_entrp">    -24.30758133 </i>
    <i name="e_0_energy">    -24.30758133 </i>
   </energy>
  </scstep>
  <structure>
   <crystal>
    <varray name="basis" >
     <v>       3.19792164      -0.00000000       0.00000000 </v>
     <v>      -1.59896082       2.76948138       0.00000000 </v>
     <v>       0.00000000       0.00000000       5.20734076 </v>
    </varray>
    <i name="volume">     46.11925325 </i>
    <varray name="rec_basis" >
     <v>       0.31270310       0.18053922      -0.00000000 </v>
     <v>       0.00000000       0.36107843      -0.00000000 </v>
     <v>      -0.00000000      -0.00000000       0.19203660 </v>
    </varray>
   </crystal>
   <varray name="positions" >
    <v>       0.66666667       0.33333333       0.49911170 </v>
    <v>       0.33333333       0.66666667       0.99911170 </v>
    <v>       0.66666667       0.33333333       0.87588830 </v>
    <v>       0.33333333       0.66666667       0.37588830 </v>
   </varray>
  </structure>
  <varray name="forces" >
   <v>      -0.00000000       0.00000000       0.00228764 </v>
   <v>       0.00000000      -0.00000000       0.00228764 </v>
   <v>       0.00000000       0.00000000      -0.00228764 </v>
   <v>      -0.00000000      -0.00000000      -0.00228764 </v>
  </varray>
  <varray name="stress" >
   <v>       0.13999238      -0.00000000       0.00000000 </v>
   <v>      -0.00000000       0.13999238      -0.00000000 </v>
   <v>       0.00000000      -0.00000000       0.66246382 </v>
  </varray>
  <energy>
   <i name="e_fr_energy">    -24.30758133 </i>
   <i name="e_wo_entrp">    -24.30758133 </i>
   <i name="e_0_energy">    -24.30758133 </i>
  </energy>
  <time name="totalsc">    1.52    1.54</time>
  <eigenvalues>
   <array>
    <dimension dim="1">band</dimension>
    <dimension dim="2">kpoint</dimension>
    <dimension dim="3">spin</dimension>
    <field>eigene</field>
    <field>occ</field>
    <set>
     <set comment="spin 1">
      <set comment="kpoint 1">
       <r>  -10.6426    1.0000 </r>
       <r>   -9.8122    1.0000 </r>
       <r>   -8.1972    1.0000 </r>
       <r>   -8.1937    1.0000 </r>
       <r>   -8.1937    1.0000 </r>
       <r>   -8.1385    1.0000 </r>
       <r>   -8.1385    1.0000 </r>
       <r>   -7.9435    1.0000 </r>
       <r>   -7.9435    1.0000 </r>
       <r>   -7.8559    1.0000 </r>
       <r>   -7.8559    1.0000 </r>
       <r>   -6.7860    1.0000 </r>
       <r>   -1.4851    1.0000 </r>
       <r>    4.2355    1.0000 </r>
       <r>    4.2361    1.0000 </r>
       <r>    4.6810    1.0000 </r>
       <r>    5.1860    1.0000 </r>
       <r>    5.1865    1.0000 </r>
       <r>    7.5074    0.0000 </r>
       <r>    9.4367    0.0000 </r>
       <r>   14.2640    0.0000 </r>
       <r>   15.0742    0.0000 </r>
       <r>   15.0742    0.0000 </r>
       <r>   15.4914    0.0000 </r>
      </set>
      <set comment="kpoint 2">
       <r>  -10.3988    1.0000 </r>
       <r>   -9.7471    1.0000 </r>
       <r>   -8.1782    1.0000 </r>
       <r>   -8.1589    1.0000 </r>
       <r>   -8.1174    1.0000 </r>
       <r>   -8.0890    1.0000 </r>
       <r>   -8.0800    1.0000 </r>
       <r>   -7.9583    1.0000 </r>
       <r>   -7.9428    1.0000 </r>
       <r>   -7.8916    1.0000 </r>
       <r>   -7.8511    1.0000 </r>
       <r>   -6.5913    1.0000 </r>
       <r>   -1.1429    1.0000 </r>
       <r>    2.5833    1.0000 </r>
       <r>    3.3095    1.0000 </r>
       <r>    3.7405    1.0000 </r>
       <r>    4.8194    1.0000 </r>
       <r>    4.9318    1.0000 </r>
       <r>    8.7545    0.0000 </r>
       <r>   10.7124    0.0000 </r>
       <r>   13.2891    0.0000 </r>
       <r>   13.9647    0.0000 </r>
       <r>   15.4609    0.0000 </r>
       <r>   15.6674    0.0000 </r>
      </set>
      <set comment="kpoint 3">
       <r>   -9.9594    1.0000 </r>
       <r>   -9.6581    1.0000 </r>
       <r>   -8.1458    1.0000 </r>
       <r>   -8.1195    1.0000 </r>
       <r>   -8.0531    1.0000 </r>
       <r>   -7.9927    1.0000 </r>
       <r>   -7.9910    1.0000 </r>
       <r>   -7.9456    1.0000 </r>
       <r>   -7.9024    1.0000 </r>
       <r>   -7.8405    1.0000 </r>
       <r>   -7.5085    1.0000 </r>
       <r>   -6.1818    1.0000 </r>
       <r>   -0.7160    1.0000 </r>
       <r>    0.5744    1.0000 </r>
       <r>    1.2634    1.0000 </r>
       <r>    2.9237    1.0000 </r>
       <r>    4.0450    1.0000 </r>
       <r>    4.4107    1.0000 </r>
       <r>    9.8489    0.0000 </r>
       <r>   10.9200    0.0000 </r>
       <r>   12.1106    0.0000 </r>
       <r>   13.4920    0.0000 </r>
       <r>   15.3428    0.0000 </r>
       <r>   15.9097    0.0000 </r>
      </set>
      <set comment="kpoint 4">
       <r>   -9.7911    1.0000 </r>
       <r>   -9.6337    1.0000 </r>
       <r>   -8.1501    1.0000 </r>
       <r>   -8.1154    1.0000 </r>
       <r>   -8.0202    1.0000 </r>
       <r>   -8.0176    1.0000 </r>
       <r>   -7.9502    1.0000 </r>
       <r>   -7.9153    1.0000 </r>
       <r>   -7.8611    1.0000 </r>
       <r>   -7.8311    1.0000 </r>
       <r>   -6.7146    1.0000 </r>
       <r>   -6.2219    1.0000 </r>
       <r>   -1.2884    1.0000 </r>
       <r>   -0.2173    1.0000 </r>
       <r>    1.3327    1.0000 </r>
       <r>    2.5662    1.0000 </r>
       <r>    3.2304    1.0000 </r>
       <r>    4.1583    1.0000 </r>
       <r>   10.0976    0.0000 </r>
       <r>   10.2822    0.0000 </r>
       <r>   11.9391    0.0000 </r>
       <r>   13.4950    0.0000 </r>
       <r>   15.5185    0.0000 </r>
       <r>   15.7182    0.0000 </r>
      </set>
      <set comment="kpoint 5">
       <r>  -10.0575    1.0000 </r>
       <r>   -9.6753    1.0000 </r>
       <r>   -8.1430    1.0000 </r>
       <r>   -8.1280    1.0000 </r>
       <r>   -8.0637    1.0000 </r>
       <r>   -8.0462    1.0000 </r>
       <r>   -7.9767    1.0000 </r>
       <r>   -7.9435    1.0000 </r>
       <r>   -7.9080    1.0000 </r>
       <r>   -7.8775    1.0000 </r>
       <r>   -7.6890    1.0000 </r>
       <r>   -6.2690    1.0000 </r>
       <r>   -0.6523    1.0000 </r>
       <r>    1.3737    1.0000 </r>
       <r>    1.4859    1.0000 </r>
       <r>    2.8012    1.0000 </r>
       <r>    4.1331    1.0000 </r>
       <r>    4.3781    1.0000 </r>
       <r>   10.0695    0.0000 </r>
       <r>   12.0090    0.0000 </r>
       <r>   12.4527    0.0000 </r>
       <r>   12.8952    0.0000 </r>
       <r>   15.0455    0.0000 </r>
       <r>   15.3715    0.0000 </r>
      </set>
      <set comment="kpoint 6">
       <r>   -9.7808    1.0000 </r>
       <r>   -9.6374    1.0000 </r>
       <r>   -8.1596    1.0000 </r>
       <r>   -8.0943    1.0000 </r>
       <r>   -8.0176    1.0000 </r>
       <r>   -7.9839    1.0000 </r>
       <r>   -7.9742    1.0000 </r>
       <r>   -7.9372    1.0000 </r>
       <r>   -7.8827    1.0000 </r>
       <r>   -7.8605    1.0000 </r>
       <r>   -6.8633    1.0000 </r>
       <r>   -6.0401    1.0000 </r>
       <r>   -0.8573    1.0000 </r>
       <r>    0.0713    1.0000 </r>
       <r>    1.2372    1.0000 </r>
       <r>    1.7734    1.0000 </r>
       <r>    3.2951    1.0000 </r>
       <r>    3.4757    1.0000 </r>
       <r>   10.7819    0.0000 </r>
       <r>   11.7007    0.0000 </r>
       <r>   12.0466    0.0000 </r>
       <r>   13.3864    0.0000 </r>
       <r>   14.7946    0.0000 </r>
       <r>   15.2898    0.0000 </r>
      </set>
      <set comment="kpoint 7">
       <r>   -9.6666    1.0000 </r>
       <r>   -9.6666    1.0000 </r>
       <r>   -8.1858    1.0000 </r>
       <r>   -8.0159    1.0000 </r>
       <r>   -8.0159    1.0000 </r>
       <r>   -7.9802    1.0000 </r>
       <r>   -7.9456    1.0000 </r>
       <r>   -7.9456    1.0000 </r>
       <r>   -7.9187    1.0000 </r>
       <r>   -7.8825    1.0000 </r>
       <r>   -6.1987    1.0000 </r>
       <r>   -6.1987    1.0000 </r>
       <r>   -0.2572    1.0000 </r>
       <r>   -0.2571    1.0000 </r>
       <r>    0.0818    1.0000 </r>
       <r>    2.3966    1.0000 </r>
       <r>    2.5271    1.0000 </r>
       <r>    2.5271    1.0000 </r>
       <r>   10.5992    0.0000 </r>
       <r>   12.7838    0.0000 </r>
       <r>   12.7838    0.0000 </r>
       <r>   13.5743    0.0000 </r>
       <r>   14.7619    0.0000 </r>
       <r>   14.7620    0.0000 </r>
      </set>
      <set comment="kpoint 8">
       <r>  -10.3331    1.0000 </r>
       <r>   -9.9746    1.0000 </r>
       <r>   -8.1844    1.0000 </r>
       <r>   -8.1844    1.0000 </r>
       <r>   -8.1613    1.0000 </r>
       <r>   -8.1613    1.0000 </r>
       <r>   -8.0504    1.0000 </r>
       <r>   -7.9115    1.0000 </r>
       <r>   -7.9115    1.0000 </r>
       <r>   -7.8755    1.0000 </r>
       <r>   -7.8755    1.0000 </r>
       <r>   -7.5510    1.0000 </r>
       <r>    0.2645    1.0000 </r>
       <r>    2.5552    1.0000 </r>
       <r>    4.5063    1.0000 </r>
       <r>    4.5068    1.0000 </r>
       <r>    4.8996    1.0000 </r>
       <r>    4.9002    1.0000 </r>
       <r>    8.9627    0.0000 </r>
       <r>    9.5503    0.0000 </r>
       <r>   13.7023    0.0000 </r>
       <r>   13.9970    0.0000 </r>
       <r>   15.3051    0.0000 </r>
       <r>   15.3051    0.0000 </r>
      </set>
      <set comment="kpoint 9">
       <r>  -10.1391    1.0000 </r>
       <r>   -9.8617    1.0000 </r>
       <r>   -8.1610    1.0000 </r>
       <r>   -8.1433    1.0000 </r>
       <r>   -8.1353    1.0000 </r>
       <r>   -8.1142    1.0000 </r>
       <r>   -8.0168    1.0000 </r>
       <r>   -7.9412    1.0000 </r>
       <r>   -7.9121    1.0000 </r>
       <r>   -7.8743    1.0000 </r>
       <r>   -7.8107    1.0000 </r>
       <r>   -7.3211    1.0000 </r>
       <r>    0.3407    1.0000 </r>
       <r>    2.0429    1.0000 </r>
       <r>    3.1756    1.0000 </r>
       <r>    4.0684    1.0000 </r>
       <r>    4.0854    1.0000 </r>
       <r>    4.5586    1.0000 </r>
       <r>    9.7506    0.0000 </r>
       <r>   10.6761    0.0000 </r>
       <r>   12.8198    0.0000 </r>
       <r>   13.3010    0.0000 </r>
       <r>   14.9945    0.0000 </r>
       <r>   15.6970    0.0000 </r>
      </set>
      <set comment="kpoint 10">
       <r>   -9.8208    1.0000 </r>
       <r>   -9.6966    1.0000 </r>
       <r>   -8.1478    1.0000 </r>
       <r>   -8.1082    1.0000 </r>
       <r>   -8.0807    1.0000 </r>
       <r>   -8.0272    1.0000 </r>
       <r>   -7.9711    1.0000 </r>
       <r>   -7.9407    1.0000 </r>
       <r>   -7.8883    1.0000 </r>
       <r>   -7.8631    1.0000 </r>
       <r>   -7.2637    1.0000 </r>
       <r>   -6.7398    1.0000 </r>
       <r>   -0.5132    1.0000 </r>
       <r>    0.1673    1.0000 </r>
       <r>    2.3517    1.0000 </r>
       <r>    3.3188    1.0000 </r>
       <r>    3.7909    1.0000 </r>
       <r>    3.9283    1.0000 </r>
       <r>    9.6579    0.0000 </r>
       <r>   10.5873    0.0000 </r>
       <r>   12.5793    0.0000 </r>
       <r>   13.2320    0.0000 </r>
       <r>   15.0449    0.0000 </r>
       <r>   15.5124    0.0000 </r>
      </set>
      <set comment="kpoint 11">
       <r>   -9.7093    1.0000 </r>
       <r>   -9.6441    1.0000 </r>
       <r>   -8.1594    1.0000 </r>
       <r>   -8.1165    1.0000 </r>
       <r>   -8.0640    1.0000 </r>
       <r>   -7.9934    1.0000 </r>
       <r>   -7.9530    1.0000 </r>
       <r>   -7.8980    1.0000 </r>
       <r>   -7.8579    1.0000 </r>
       <r>   -7.8478    1.0000 </r>
       <r>   -6.6025    1.0000 </r>
       <r>   -6.3936    1.0000 </r>
       <r>   -1.4720    1.0000 </r>
       <r>   -1.0199    1.0000 </r>
       <r>    2.7112    1.0000 </r>
       <r>    2.9875    1.0000 </r>
       <r>    3.6402    1.0000 </r>
       <r>    3.6699    1.0000 </r>
       <r>    9.3073    0.0000 </r>
       <r>   10.0596    0.0000 </r>
       <r>   12.7250    0.0000 </r>
       <r>   13.1164    0.0000 </r>
       <r>   15.2252    0.0000 </r>
       <r>   15.3221    0.0000 </r>
      </set>
      <set comment="kpoint 12">
       <r>   -9.8876    1.0000 </r>
       <r>   -9.7292    1.0000 </r>
       <r>   -8.1254    1.0000 </r>
       <r>   -8.1097    1.0000 </r>
       <r>   -8.0890    1.0000 </r>
       <r>   -8.0724    1.0000 </r>
       <r>   -7.9783    1.0000 </r>
       <r>   -7.9769    1.0000 </r>
       <r>   -7.8876    1.0000 </r>
       <r>   -7.8800    1.0000 </r>
       <r>   -7.4538    1.0000 </r>
       <r>   -6.9052    1.0000 </r>
       <r>    0.0040    1.0000 </r>
       <r>    0.8412    1.0000 </r>
       <r>    2.5135    1.0000 </r>
       <r>    2.9682    1.0000 </r>
       <r>    3.6135    1.0000 </r>
       <r>    3.9694    1.0000 </r>
       <r>   10.3706    0.0000 </r>
       <r>   11.3855    0.0000 </r>
       <r>   12.5922    0.0000 </r>
       <r>   12.9998    0.0000 </r>
       <r>   14.5927    0.0000 </r>
       <r>   15.0624    0.0000 </r>
      </set>
      <set comment="kpoint 13">
       <r>   -9.7017    1.0000 </r>
       <r>   -9.6429    1.0000 </r>
       <r>   -8.1231    1.0000 </r>
       <r>   -8.0984    1.0000 </r>
       <r>   -8.0763    1.0000 </r>
       <r>   -8.0131    1.0000 </r>
       <r>   -7.9577    1.0000 </r>
       <r>   -7.9330    1.0000 </r>
       <r>   -7.8785    1.0000 </r>
       <r>   -7.8684    1.0000 </r>
       <r>   -6.6767    1.0000 </r>
       <r>   -6.3353    1.0000 </r>
       <r>   -1.0247    1.0000 </r>
       <r>   -0.5967    1.0000 </r>
       <r>    1.8208    1.0000 </r>
       <r>    2.6047    1.0000 </r>
       <r>    3.0095    1.0000 </r>
       <r>    3.8667    1.0000 </r>
       <r>   10.3411    0.0000 </r>
       <r>   11.1669    0.0000 </r>
       <r>   12.8069    0.0000 </r>
       <r>   13.4347    0.0000 </r>
       <r>   14.1777    0.0000 </r>
       <r>   14.5992    0.0000 </r>
      </set>
      <set comment="kpoint 14">
       <r>   -9.6350    1.0000 </r>
       <r>   -9.6350    1.0000 </r>
       <r>   -8.1135    1.0000 </r>
       <r>   -8.0690    1.0000 </r>
       <r>   -8.0690    1.0000 </r>
       <r>   -8.0153    1.0000 </r>
       <r>   -7.9257    1.0000 </r>
       <r>   -7.9243    1.0000 </r>
       <r>   -7.9101    1.0000 </r>
       <r>   -7.9101    1.0000 </r>
       <r>   -6.1912    1.0000 </r>
       <r>   -6.1912    1.0000 </r>
       <r>   -0.8087    1.0000 </r>
       <r>   -0.8087    1.0000 </r>
       <r>    0.6423    1.0000 </r>
       <r>    1.5716    1.0000 </r>
       <r>    3.5639    1.0000 </r>
       <r>    3.5639    1.0000 </r>
       <r>   11.8025    0.0000 </r>
       <r>   11.8025    0.0000 </r>
       <r>   11.8430    0.0000 </r>
       <r>   13.0716    0.0000 </r>
       <r>   14.2423    0.0000 </r>
       <r>   14.2423    0.0000 </r>
      </set>
     </set>
    </set>
   </array>
  </eigenvalues>
  <separator name="orbital magnetization" >
   <v name="MAGDIPOLOUT">      0.00000000      0.00000000      0.00000000</v>
  </separator>
  <dos>
   <i name="efermi">      5.18661417 </i>
   <total>
    <array>
     <dimension dim="1">gridpoints</dimension>
     <dimension dim="2">spin</dimension>
     <field>energy</field>
     <field>total</field>
     <field>integrated</field>
     <set>
      <set comment="spin 1">
       <r>   -11.9703     0.0000     0.0000 </r>
       <r>   -11.8729     0.0000     0.0000 </r>
       <r>   -11.7755     0.0000     0.0000 </r>
       <r>   -11.6782     0.0000     0.0000 </r>
       <r>   -11.5808     0.0000     0.0000 </r>
       <r>   -11.4835     0.0000     0.0000 </r>
       <r>   -11.3861     0.0000     0.0000 </r>
       <r>   -11.2888     0.0000     0.0000 </r>
       <r>   -11.1914     0.0000     0.0000 </r>
       <r>   -11.0940     0.0000     0.0000 </r>
       <r>   -10.9967     0.0000     0.0000 </r>
       <r>   -10.8993     0.0000     0.0000 </r>
       <r>   -10.8020     0.0000     0.0000 </r>
       <r>   -10.7046     0.0000     0.0000 </r>
       <r>   -10.6072     0.0558     0.0010 </r>
       <r>   -10.5099     0.2725     0.0162 </r>
       <r>   -10.4125     0.5821     0.0570 </r>
       <r>   -10.3152     0.8034     0.1202 </r>
       <r>   -10.2178     1.2037     0.2188 </r>
       <r>   -10.1204     1.3944     0.3490 </r>
       <r>   -10.0231     1.7783     0.4995 </r>
       <r>    -9.9257     3.0536     0.7202 </r>
       <r>    -9.8284     6.1328     1.1528 </r>
       <r>    -9.7310    11.8221     2.0647 </r>
       <r>    -9.6337    15.1692     4.0000 </r>
       <r>    -9.5363     0.0000     4.0000 </r>
       <r>    -9.4389     0.0000     4.0000 </r>
       <r>    -9.3416     0.0000     4.0000 </r>
       <r>    -9.2442     0.0000     4.0000 </r>
       <r>    -9.1469     0.0000     4.0000 </r>
       <r>    -9.0495     0.0000     4.0000 </r>
       <r>    -8.9521     0.0000     4.0000 </r>
       <r>    -8.8548     0.0000     4.0000 </r>
       <r>    -8.7574     0.0000     4.0000 </r>
       <r>    -8.6601     0.0000     4.0000 </r>
       <r>    -8.5627     0.0000     4.0000 </r>
       <r>    -8.4654     0.0000     4.0000 </r>
       <r>    -8.3680     0.0000     4.0000 </r>
       <r>    -8.2706     0.0000     4.0000 </r>
       <r>    -8.1733    18.7538     4.1843 </r>
       <r>    -8.0759   103.1676     9.1228 </r>
       <r>    -7.9786    48.3421    12.7660 </r>
       <r>    -7.8812   122.3255    17.7967 </r>
       <r>    -7.7838    16.4401    20.2430 </r>
       <r>    -7.6865     1.4311    20.3826 </r>
       <r>    -7.5891     1.3060    20.5167 </r>
       <r>    -7.4918     1.2170    20.6371 </r>
       <r>    -7.3944     1.3356    20.7611 </r>
       <r>    -7.2971     1.3290    20.8956 </r>
       <r>    -7.1997     1.4524    21.0302 </r>
       <r>    -7.1023     1.6050    21.1790 </r>
       <r>    -7.0050     1.7654    21.3430 </r>
       <r>    -6.9076     1.9337    21.5230 </r>
       <r>    -6.8103     2.8865    21.7603 </r>
       <r>    -6.7129     2.8701    22.0430 </r>
       <r>    -6.6155     2.6617    22.3595 </r>
       <r>    -6.5182     2.3089    22.5872 </r>
       <r>    -6.4208     2.3814    22.8153 </r>
       <r>    -6.3235     3.7748    23.0956 </r>
       <r>    -6.2261     3.2181    23.4200 </r>
       <r>    -6.1287     3.2967    23.7678 </r>
       <r>    -6.0314     0.0000    24.0000 </r>
       <r>    -5.9340     0.0000    24.0000 </r>
       <r>    -5.8367     0.0000    24.0000 </r>
       <r>    -5.7393     0.0000    24.0000 </r>
       <r>    -5.6420     0.0000    24.0000 </r>
       <r>    -5.5446     0.0000    24.0000 </r>
       <r>    -5.4472     0.0000    24.0000 </r>
       <r>    -5.3499     0.0000    24.0000 </r>
       <r>    -5.2525     0.0000    24.0000 </r>
       <r>    -5.1552     0.0000    24.0000 </r>
       <r>    -5.0578     0.0000    24.0000 </r>
       <r>    -4.9604     0.0000    24.0000 </r>
       <r>    -4.8631     0.0000    24.0000 </r>
       <r>    -4.7657     0.0000    24.0000 </r>
       <r>    -4.6684     0.0000    24.0000 </r>
       <r>    -4.5710     0.0000    24.0000 </r>
       <r>    -4.4737     0.0000    24.0000 </r>
       <r>    -4.3763     0.0000    24.0000 </r>
       <r>    -4.2789     0.0000    24.0000 </r>
       <r>    -4.1816     0.0000    24.0000 </r>
       <r>    -4.0842     0.0000    24.0000 </r>
       <r>    -3.9869     0.0000    24.0000 </r>
       <r>    -3.8895     0.0000    24.0000 </r>
       <r>    -3.7921     0.0000    24.0000 </r>
       <r>    -3.6948     0.0000    24.0000 </r>
       <r>    -3.5974     0.0000    24.0000 </r>
       <r>    -3.5001     0.0000    24.0000 </r>
       <r>    -3.4027     0.0000    24.0000 </r>
       <r>    -3.3054     0.0000    24.0000 </r>
       <r>    -3.2080     0.0000    24.0000 </r>
       <r>    -3.1106     0.0000    24.0000 </r>
       <r>    -3.0133     0.0000    24.0000 </r>
       <r>    -2.9159     0.0000    24.0000 </r>
       <r>    -2.8186     0.0000    24.0000 </r>
       <r>    -2.7212     0.0000    24.0000 </r>
       <r>    -2.6238     0.0000    24.0000 </r>
       <r>    -2.5265     0.0000    24.0000 </r>
       <r>    -2.4291     0.0000    24.0000 </r>
       <r>    -2.3318     0.0000    24.0000 </r>
       <r>    -2.2344     0.0000    24.0000 </r>
       <r>    -2.1370     0.0000    24.0000 </r>
       <r>    -2.0397     0.0000    24.0000 </r>
       <r>    -1.9423     0.0000    24.0000 </r>
       <r>    -1.8450     0.0000    24.0000 </r>
       <r>    -1.7476     0.0000    24.0000 </r>
       <r>    -1.6503     0.0000    24.0000 </r>
       <r>    -1.5529     0.0000    24.0000 </r>
       <r>    -1.4555     0.0360    24.0004 </r>
       <r>    -1.3582     0.2535    24.0137 </r>
       <r>    -1.2608     0.6009    24.0535 </r>
       <r>    -1.1635     1.0628    24.1344 </r>
       <r>    -1.0661     1.4446    24.2545 </r>
       <r>    -0.9687     2.6917    24.4588 </r>
       <r>    -0.8714     3.0214    24.7404 </r>
       <r>    -0.7740     3.3774    25.0573 </r>
       <r>    -0.6767     3.1474    25.4011 </r>
       <r>    -0.5793     1.8881    25.6606 </r>
       <r>    -0.4820     1.6699    25.8324 </r>
       <r>    -0.3846     1.5328    25.9880 </r>
       <r>    -0.2872     1.4309    26.1320 </r>
       <r>    -0.1899     1.5283    26.2726 </r>
       <r>    -0.0925     1.7423    26.4324 </r>
       <r>     0.0048     1.8767    26.6092 </r>
       <r>     0.1022     1.1788    26.7728 </r>
       <r>     0.1996     1.1110    26.8843 </r>
       <r>     0.2969     1.5026    26.9967 </r>
       <r>     0.3943     0.7041    27.1130 </r>
       <r>     0.4916     0.6812    27.1803 </r>
       <r>     0.5890     0.6666    27.2458 </r>
       <r>     0.6864     0.6708    27.3108 </r>
       <r>     0.7837     0.6818    27.3766 </r>
       <r>     0.8811     0.6953    27.4436 </r>
       <r>     0.9784     0.7148    27.5122 </r>
       <r>     1.0758     0.7371    27.5828 </r>
       <r>     1.1731     0.7623    27.6558 </r>
       <r>     1.2705     3.9098    27.8118 </r>
       <r>     1.3679     1.6934    28.0526 </r>
       <r>     1.4652     1.3478    28.2014 </r>
       <r>     1.5626     1.2326    28.3240 </r>
       <r>     1.6599     1.2404    28.4438 </r>
       <r>     1.7573     1.3218    28.5679 </r>
       <r>     1.8547     1.9156    28.7393 </r>
       <r>     1.9520     1.9875    28.9294 </r>
       <r>     2.0494     2.1356    29.1264 </r>
       <r>     2.1467     2.1626    29.3358 </r>
       <r>     2.2441     2.1628    29.5466 </r>
       <r>     2.3414     2.1361    29.7561 </r>
       <r>     2.4388     1.9774    29.9565 </r>
       <r>     2.5362     1.8203    30.1412 </r>
       <r>     2.6335     2.0172    30.3206 </r>
       <r>     2.7309     2.0305    30.5171 </r>
       <r>     2.8282     2.1002    30.7180 </r>
       <r>     2.9256     2.1552    30.9255 </r>
       <r>     3.0230     2.7545    31.1439 </r>
       <r>     3.1203     2.9466    31.4216 </r>
       <r>     3.2177     3.0374    31.7138 </r>
       <r>     3.3150     3.4624    32.0581 </r>
       <r>     3.4124     2.8071    32.3419 </r>
       <r>     3.5097     2.7948    32.6099 </r>
       <r>     3.6071     3.0411    32.8917 </r>
       <r>     3.7045     3.5594    33.2087 </r>
       <r>     3.8018     4.2797    33.5914 </r>
       <r>     3.8992     4.6819    34.0302 </r>
       <r>     3.9965     2.9686    34.4144 </r>
       <r>     4.0939     2.6010    34.6874 </r>
       <r>     4.1913     2.2145    34.9213 </r>
       <r>     4.2886     1.8537    35.1188 </r>
       <r>     4.3860     1.5751    35.2840 </r>
       <r>     4.4833     1.4179    35.4329 </r>
       <r>     4.5807     1.3104    35.5625 </r>
       <r>     4.6781     1.1176    35.6807 </r>
       <r>     4.7754     0.9228    35.7802 </r>
       <r>     4.8728     0.8084    35.8654 </r>
       <r>     4.9701     0.6676    35.9370 </r>
       <r>     5.0675     0.3037    35.9835 </r>
       <r>     5.1648     0.0435    35.9995 </r>
       <r>     5.2622     0.0000    36.0000 </r>
       <r>     5.3596     0.0000    36.0000 </r>
       <r>     5.4569     0.0000    36.0000 </r>
       <r>     5.5543     0.0000    36.0000 </r>
       <r>     5.6516     0.0000    36.0000 </r>
       <r>     5.7490     0.0000    36.0000 </r>
       <r>     5.8464     0.0000    36.0000 </r>
       <r>     5.9437     0.0000    36.0000 </r>
       <r>     6.0411     0.0000    36.0000 </r>
       <r>     6.1384     0.0000    36.0000 </r>
       <r>     6.2358     0.0000    36.0000 </r>
       <r>     6.3331     0.0000    36.0000 </r>
       <r>     6.4305     0.0000    36.0000 </r>
       <r>     6.5279     0.0000    36.0000 </r>
       <r>     6.6252     0.0000    36.0000 </r>
       <r>     6.7226     0.0000    36.0000 </r>
       <r>     6.8199     0.0000    36.0000 </r>
       <r>     6.9173     0.0000    36.0000 </r>
       <r>     7.0147     0.0000    36.0000 </r>
       <r>     7.1120     0.0000    36.0000 </r>
       <r>     7.2094     0.0000    36.0000 </r>
       <r>     7.3067     0.0000    36.0000 </r>
       <r>     7.4041     0.0000    36.0000 </r>
       <r>     7.5014     0.0000    36.0000 </r>
       <r>     7.5988     0.0053    36.0002 </r>
       <r>     7.6962     0.0117    36.0011 </r>
       <r>     7.7935     0.0189    36.0025 </r>
       <r>     7.8909     0.0269    36.0048 </r>
       <r>     7.9882     0.0358    36.0078 </r>
       <r>     8.0856     0.0454    36.0117 </r>
       <r>     8.1830     0.0559    36.0167 </r>
       <r>     8.2803     0.0672    36.0227 </r>
       <r>     8.3777     0.0794    36.0298 </r>
       <r>     8.4750     0.0923    36.0381 </r>
       <r>     8.5724     0.1061    36.0478 </r>
       <r>     8.6698     0.1207    36.0588 </r>
       <r>     8.7671     0.1342    36.0713 </r>
       <r>     8.8645     0.1621    36.0857 </r>
       <r>     8.9618     0.1900    36.1029 </r>
       <r>     9.0592     0.2312    36.1233 </r>
       <r>     9.1565     0.2732    36.1479 </r>
       <r>     9.2539     0.3158    36.1766 </r>
       <r>     9.3513     0.3847    36.2100 </r>
       <r>     9.4486     0.5006    36.2529 </r>
       <r>     9.5460     0.6474    36.3085 </r>
       <r>     9.6433     0.8260    36.3800 </r>
       <r>     9.7407     1.2638    36.4791 </r>
       <r>     9.8381     1.5048    36.6180 </r>
       <r>     9.9354     1.6081    36.7696 </r>
       <r>    10.0328     1.6782    36.9299 </r>
       <r>    10.1301     1.7010    37.0952 </r>
       <r>    10.2275     1.6987    37.2604 </r>
       <r>    10.3248     1.7416    37.4273 </r>
       <r>    10.4222     2.0585    37.6307 </r>
       <r>    10.5196     1.6876    37.7923 </r>
       <r>    10.6169     1.8902    37.9606 </r>
       <r>    10.7143     2.6512    38.1841 </r>
       <r>    10.8116     1.7559    38.4238 </r>
       <r>    10.9090     1.7787    38.5966 </r>
       <r>    11.0064     1.6728    38.7650 </r>
       <r>    11.1037     1.5620    38.9224 </r>
       <r>    11.2011     1.9753    39.0879 </r>
       <r>    11.2984     1.6656    39.2659 </r>
       <r>    11.3958     1.2925    39.4092 </r>
       <r>    11.4931     1.1531    39.5283 </r>
       <r>    11.5905     1.0090    39.6336 </r>
       <r>    11.6879     0.8600    39.7246 </r>
       <r>    11.7852     0.8161    39.8202 </r>
       <r>    11.8826     0.5270    39.8843 </r>
       <r>    11.9799     1.0754    39.9412 </r>
       <r>    12.0773     1.8806    40.1156 </r>
       <r>    12.1747     1.7102    40.2826 </r>
       <r>    12.2720     1.7510    40.4515 </r>
       <r>    12.3694     1.7463    40.6221 </r>
       <r>    12.4667     1.7167    40.7902 </r>
       <r>    12.5641     1.9403    40.9661 </r>
       <r>    12.6615     3.2470    41.2646 </r>
       <r>    12.7588     2.8302    41.5623 </r>
       <r>    12.8562     0.5609    41.7236 </r>
       <r>    12.9535     0.6374    41.7783 </r>
       <r>    13.0509     1.3731    41.8683 </r>
       <r>    13.1482     2.7159    42.0590 </r>
       <r>    13.2456     4.6351    42.4244 </r>
       <r>    13.3430     4.7596    42.8787 </r>
       <r>    13.4403     5.2107    43.4383 </r>
       <r>    13.5377     0.9895    43.7140 </r>
       <r>    13.6350     0.6076    43.7839 </r>
       <r>    13.7324     0.4791    43.8366 </r>
       <r>    13.8298     0.3686    43.8778 </r>
       <r>    13.9271     0.2694    43.9088 </r>
       <r>    14.0245     0.1849    43.9303 </r>
       <r>    14.1218     0.1489    43.9465 </r>
       <r>    14.2192     1.6125    44.0506 </r>
       <r>    14.3165     0.9222    44.1397 </r>
       <r>    14.4139     1.1997    44.2426 </r>
       <r>    14.5113     1.5265    44.3749 </r>
       <r>    14.6086     1.7285    44.5399 </r>
       <r>    14.7060     2.0796    44.7245 </r>
       <r>    14.8033     3.5436    45.0297 </r>
       <r>    14.9007     3.0919    45.3106 </r>
       <r>    14.9981     3.5844    45.6335 </r>
       <r>    15.0954     3.4790    45.9737 </r>
       <r>    15.1928     3.4730    46.3130 </r>
       <r>    15.2901     4.3314    46.6492 </r>
       <r>    15.3875     3.1544    47.0112 </r>
       <r>    15.4848     2.4941    47.2903 </r>
       <r>    15.5822     3.0262    47.5580 </r>
       <r>    15.6796     2.1544    47.8628 </r>
       <r>    15.7769     0.6101    47.9637 </r>
       <r>    15.8743     0.1260    47.9978 </r>
       <r>    15.9716     0.0000    48.0000 </r>
       <r>    16.0690     0.0000    48.0000 </r>
       <r>    16.1664     0.0000    48.0000 </r>
       <r>    16.2637     0.0000    48.0000 </r>
       <r>    16.3611     0.0000    48.0000 </r>
       <r>    16.4584     0.0000    48.0000 </r>
       <r>    16.5558     0.0000    48.0000 </r>
       <r>    16.6532     0.0000    48.0000 </r>
       <r>    16.7505     0.0000    48.0000 </r>
       <r>    16.8479     0.0000    48.0000 </r>
       <r>    16.9452     0.0000    48.0000 </r>
       <r>    17.0426     0.0000    48.0000 </r>
       <r>    17.1399     0.0000    48.0000 </r>
       <r>    17.2373     0.0000    48.0000 </r>
      </set>
     </set>
    </array>
   </total>
   <partial>
    <array>
     <dimension dim="1">gridpoints</dimension>
     <dimension dim="2">spin</dimension>
     <dimension dim="3">ion</dimension>
     <field>energy</field>
     <field>  s  </field>
     <field>  p  </field>
     <field>  d  </field>
     <set>
      <set comment="ion 1">
       <set comment="spin 1">
        <r>   -11.9703     0.0000     0.0000     0.0000 </r>
        <r>   -11.8729     0.0000     0.0000     0.0000 </r>
        <r>   -11.7755     0.0000     0.0000     0.0000 </r>
        <r>   -11.6782     0.0000     0.0000     0.0000 </r>
        <r>   -11.5808     0.0000     0.0000     0.0000 </r>
        <r>   -11.4835     0.0000     0.0000     0.0000 </r>
        <r>   -11.3861     0.0000     0.0000     0.0000 </r>
        <r>   -11.2888     0.0000     0.0000     0.0000 </r>
        <r>   -11.1914     0.0000     0.0000     0.0000 </r>
        <r>   -11.0940     0.0000     0.0000     0.0000 </r>
        <r>   -10.9967     0.0000     0.0000     0.0000 </r>
        <r>   -10.8993     0.0000     0.0000     0.0000 </r>
        <r>   -10.8020     0.0000     0.0000     0.0000 </r>
        <r>   -10.7046     0.0000     0.0000     0.0000 </r>
        <r>   -10.6072     0.0055     0.0002     0.0010 </r>
        <r>   -10.5099     0.0263     0.0013     0.0061 </r>
        <r>   -10.4125     0.0550     0.0030     0.0147 </r>
        <r>   -10.3152     0.0641     0.0068     0.0422 </r>
        <r>   -10.2178     0.0888     0.0117     0.0776 </r>
        <r>   -10.1204     0.0900     0.0159     0.1173 </r>
        <r>   -10.0231     0.0977     0.0227     0.1897 </r>
        <r>    -9.9257     0.1278     0.0436     0.4278 </r>
        <r>    -9.8284     0.1823     0.0943     1.0623 </r>
        <r>    -9.7310     0.2088     0.1918     2.4659 </r>
        <r>    -9.6337     0.0867     0.2614     3.7035 </r>
        <r>    -9.5363     0.0000     0.0000     0.0000 </r>
        <r>    -9.4389     0.0000     0.0000     0.0000 </r>
        <r>    -9.3416     0.0000     0.0000     0.0000 </r>
        <r>    -9.2442     0.0000     0.0000     0.0000 </r>
        <r>    -9.1469     0.0000     0.0000     0.0000 </r>
        <r>    -9.0495     0.0000     0.0000     0.0000 </r>
        <r>    -8.9521     0.0000     0.0000     0.0000 </r>
        <r>    -8.8548     0.0000     0.0000     0.0000 </r>
        <r>    -8.7574     0.0000     0.0000     0.0000 </r>
        <r>    -8.6601     0.0000     0.0000     0.0000 </r>
        <r>    -8.5627     0.0000     0.0000     0.0000 </r>
        <r>    -8.4654     0.0000     0.0000     0.0000 </r>
        <r>    -8.3680     0.0000     0.0000     0.0000 </r>
        <r>    -8.2706     0.0000     0.0000     0.0000 </r>
        <r>    -8.1733     0.0040     0.0043     9.0717 </r>
        <r>    -8.0759     0.0473     0.0290    50.1249 </r>
        <r>    -7.9786     0.0348     0.0112    23.6450 </r>
        <r>    -7.8812     0.0307     0.0150    60.4411 </r>
        <r>    -7.7838     0.0280     0.0047     8.0398 </r>
        <r>    -7.6865     0.0244     0.0047     0.5971 </r>
        <r>    -7.5891     0.0261     0.0059     0.5201 </r>
        <r>    -7.4918     0.0285     0.0075     0.4550 </r>
        <r>    -7.3944     0.0340     0.0103     0.4745 </r>
        <r>    -7.2971     0.0347     0.0125     0.4501 </r>
        <r>    -7.1997     0.0378     0.0152     0.4794 </r>
        <r>    -7.1023     0.0412     0.0181     0.5197 </r>
        <r>    -7.0050     0.0446     0.0213     0.5616 </r>
        <r>    -6.9076     0.0482     0.0247     0.6052 </r>
        <r>    -6.8103     0.0691     0.0413     0.8714 </r>
        <r>    -6.7129     0.0626     0.0463     0.8405 </r>
        <r>    -6.6155     0.0512     0.0481     0.7553 </r>
        <r>    -6.5182     0.0393     0.0453     0.6404 </r>
        <r>    -6.4208     0.0362     0.0496     0.6504 </r>
        <r>    -6.3235     0.0413     0.0877     1.0028 </r>
        <r>    -6.2261     0.0275     0.0781     0.8404 </r>
        <r>    -6.1287     0.0185     0.0851     0.8441 </r>
        <r>    -6.0314     0.0000     0.0000     0.0000 </r>
        <r>    -5.9340     0.0000     0.0000     0.0000 </r>
        <r>    -5.8367     0.0000     0.0000     0.0000 </r>
        <r>    -5.7393     0.0000     0.0000     0.0000 </r>
        <r>    -5.6420     0.0000     0.0000     0.0000 </r>
        <r>    -5.5446     0.0000     0.0000     0.0000 </r>
        <r>    -5.4472     0.0000     0.0000     0.0000 </r>
        <r>    -5.3499     0.0000     0.0000     0.0000 </r>
        <r>    -5.2525     0.0000     0.0000     0.0000 </r>
        <r>    -5.1552     0.0000     0.0000     0.0000 </r>
        <r>    -5.0578     0.0000     0.0000     0.0000 </r>
        <r>    -4.9604     0.0000     0.0000     0.0000 </r>
        <r>    -4.8631     0.0000     0.0000     0.0000 </r>
        <r>    -4.7657     0.0000     0.0000     0.0000 </r>
        <r>    -4.6684     0.0000     0.0000     0.0000 </r>
        <r>    -4.5710     0.0000     0.0000     0.0000 </r>
        <r>    -4.4737     0.0000     0.0000     0.0000 </r>
        <r>    -4.3763     0.0000     0.0000     0.0000 </r>
        <r>    -4.2789     0.0000     0.0000     0.0000 </r>
        <r>    -4.1816     0.0000     0.0000     0.0000 </r>
        <r>    -4.0842     0.0000     0.0000     0.0000 </r>
        <r>    -3.9869     0.0000     0.0000     0.0000 </r>
        <r>    -3.8895     0.0000     0.0000     0.0000 </r>
        <r>    -3.7921     0.0000     0.0000     0.0000 </r>
        <r>    -3.6948     0.0000     0.0000     0.0000 </r>
        <r>    -3.5974     0.0000     0.0000     0.0000 </r>
        <r>    -3.5001     0.0000     0.0000     0.0000 </r>
        <r>    -3.4027     0.0000     0.0000     0.0000 </r>
        <r>    -3.3054     0.0000     0.0000     0.0000 </r>
        <r>    -3.2080     0.0000     0.0000     0.0000 </r>
        <r>    -3.1106     0.0000     0.0000     0.0000 </r>
        <r>    -3.0133     0.0000     0.0000     0.0000 </r>
        <r>    -2.9159     0.0000     0.0000     0.0000 </r>
        <r>    -2.8186     0.0000     0.0000     0.0000 </r>
        <r>    -2.7212     0.0000     0.0000     0.0000 </r>
        <r>    -2.6238     0.0000     0.0000     0.0000 </r>
        <r>    -2.5265     0.0000     0.0000     0.0000 </r>
        <r>    -2.4291     0.0000     0.0000     0.0000 </r>
        <r>    -2.3318     0.0000     0.0000     0.0000 </r>
        <r>    -2.2344     0.0000     0.0000     0.0000 </r>
        <r>    -2.1370     0.0000     0.0000     0.0000 </r>
        <r>    -2.0397     0.0000     0.0000     0.0000 </r>
        <r>    -1.9423     0.0000     0.0000     0.0000 </r>
        <r>    -1.8450     0.0000     0.0000     0.0000 </r>
        <r>    -1.7476     0.0000     0.0000     0.0000 </r>
        <r>    -1.6503     0.0000     0.0000     0.0000 </r>
        <r>    -1.5529     0.0000     0.0000     0.0000 </r>
        <r>    -1.4555     0.0049     0.0015     0.0004 </r>
        <r>    -1.3582     0.0366     0.0092     0.0032 </r>
        <r>    -1.2608     0.0893     0.0204     0.0078 </r>
        <r>    -1.1635     0.1612     0.0343     0.0137 </r>
        <r>    -1.0661     0.2279     0.0417     0.0190 </r>
        <r>    -0.9687     0.4406     0.0699     0.0358 </r>
        <r>    -0.8714     0.4937     0.0783     0.0404 </r>
        <r>    -0.7740     0.5472     0.0890     0.0458 </r>
        <r>    -0.6767     0.4963     0.0847     0.0499 </r>
        <r>    -0.5793     0.2845     0.0533     0.0347 </r>
        <r>    -0.4820     0.2434     0.0493     0.0329 </r>
        <r>    -0.3846     0.2157     0.0474     0.0321 </r>
        <r>    -0.2872     0.1940     0.0464     0.0317 </r>
        <r>    -0.1899     0.2034     0.0510     0.0341 </r>
        <r>    -0.0925     0.2272     0.0604     0.0386 </r>
        <r>     0.0048     0.2378     0.0679     0.0419 </r>
        <r>     0.1022     0.1318     0.0488     0.0298 </r>
        <r>     0.1996     0.1180     0.0485     0.0288 </r>
        <r>     0.2969     0.1464     0.0683     0.0432 </r>
        <r>     0.3943     0.0639     0.0375     0.0169 </r>
[...]
        <r>  0.0000  0.0042  0.0000 </r>
        <r>  0.0000  0.0042  0.0000 </r>
       </set>
       <set comment="band 7">
        <r>  0.0002  0.0004  0.4911 </r>
        <r>  0.0002  0.0004  0.4911 </r>
        <r>  0.0003  0.0020  0.0000 </r>
        <r>  0.0003  0.0020  0.0000 </r>
       </set>
       <set comment="band 8">
        <r>  0.0001  0.0002  0.4944 </r>
        <r>  0.0001  0.0002  0.4944 </r>
        <r>  0.0000  0.0018  0.0000 </r>
        <r>  0.0000  0.0018  0.0000 </r>
       </set>
       <set comment="band 9">
        <r>  0.0000  0.0000  0.4968 </r>
        <r>  0.0000  0.0000  0.4968 </r>
        <r>  0.0000  0.0002  0.0000 </r>
        <r>  0.0000  0.0002  0.0000 </r>
       </set>
       <set comment="band 10">
        <r>  0.0000  0.0000  0.4970 </r>
        <r>  0.0000  0.0000  0.4969 </r>
        <r>  0.0000  0.0001  0.0000 </r>
        <r>  0.0000  0.0001  0.0000 </r>
       </set>
       <set comment="band 11">
        <r>  0.0171  0.0190  0.2850 </r>
        <r>  0.0171  0.0190  0.2850 </r>
        <r>  0.1185  0.0010  0.0000 </r>
        <r>  0.1185  0.0010  0.0000 </r>
       </set>
       <set comment="band 12">
        <r>  0.0067  0.0272  0.2583 </r>
        <r>  0.0067  0.0272  0.2583 </r>
        <r>  0.1394  0.0007  0.0000 </r>
        <r>  0.1394  0.0007  0.0000 </r>
       </set>
       <set comment="band 13">
        <r>  0.1588  0.0294  0.0124 </r>
        <r>  0.1588  0.0294  0.0124 </r>
        <r>  0.0003  0.1281  0.0000 </r>
        <r>  0.0003  0.1281  0.0000 </r>
       </set>
       <set comment="band 14">
        <r>  0.1505  0.0325  0.0156 </r>
        <r>  0.1505  0.0325  0.0156 </r>
        <r>  0.0067  0.1317  0.0000 </r>
        <r>  0.0067  0.1317  0.0000 </r>
       </set>
       <set comment="band 15">
        <r>  0.0228  0.0808  0.0239 </r>
        <r>  0.0228  0.0808  0.0239 </r>
        <r>  0.0081  0.2145  0.0000 </r>
        <r>  0.0081  0.2145  0.0000 </r>
       </set>
       <set comment="band 16">
        <r>  0.0000  0.0992  0.0181 </r>
        <r>  0.0000  0.0992  0.0181 </r>
        <r>  0.0000  0.2344  0.0000 </r>
        <r>  0.0000  0.2344  0.0000 </r>
       </set>
       <set comment="band 17">
        <r>  0.0000  0.0841  0.0282 </r>
        <r>  0.0000  0.0841  0.0282 </r>
        <r>  0.0000  0.2513  0.0000 </r>
        <r>  0.0000  0.2513  0.0000 </r>
       </set>
       <set comment="band 18">
        <r>  0.0011  0.0770  0.0298 </r>
        <r>  0.0011  0.0770  0.0298 </r>
        <r>  0.0010  0.2525  0.0000 </r>
        <r>  0.0010  0.2525  0.0000 </r>
       </set>
       <set comment="band 19">
        <r>  0.0807  0.0800  0.0379 </r>
        <r>  0.0807  0.0800  0.0379 </r>
        <r>  0.0607  0.0031  0.0000 </r>
        <r>  0.0607  0.0031  0.0000 </r>
       </set>
       <set comment="band 20">
        <r>  0.0695  0.0933  0.0366 </r>
        <r>  0.0695  0.0933  0.0366 </r>
        <r>  0.0451  0.0241  0.0000 </r>
        <r>  0.0451  0.0241  0.0000 </r>
       </set>
       <set comment="band 21">
        <r>  0.1392  0.0530  0.0497 </r>
        <r>  0.1392  0.0530  0.0497 </r>
        <r>  0.0023  0.0858  0.0000 </r>
        <r>  0.0023  0.0858  0.0000 </r>
       </set>
       <set comment="band 22">
        <r>  0.1285  0.0491  0.0397 </r>
        <r>  0.1285  0.0491  0.0397 </r>
        <r>  0.0042  0.1273  0.0000 </r>
        <r>  0.0042  0.1273  0.0000 </r>
       </set>
       <set comment="band 23">
        <r>  0.0090  0.1038  0.0432 </r>
        <r>  0.0090  0.1038  0.0432 </r>
        <r>  0.0061  0.0871  0.0000 </r>
        <r>  0.0061  0.0871  0.0000 </r>
       </set>
       <set comment="band 24">
        <r>  0.0232  0.0461  0.0270 </r>
        <r>  0.0232  0.0461  0.0270 </r>
        <r>  0.0035  0.2036  0.0000 </r>
        <r>  0.0035  0.2036  0.0000 </r>
       </set>
      </set>
      <set comment="kpoint 12">
       <set comment="band 1">
        <r>  0.0413  0.0154  0.1354 </r>
        <r>  0.0413  0.0154  0.1354 </r>
        <r>  0.2042  0.0001  0.0000 </r>
        <r>  0.2042  0.0001  0.0000 </r>
       </set>
       <set comment="band 2">
        <r>  0.0181  0.0170  0.2026 </r>
        <r>  0.0181  0.0170  0.2026 </r>
        <r>  0.1824  0.0000  0.0000 </r>
        <r>  0.1824  0.0000  0.0000 </r>
       </set>
       <set comment="band 3">
        <r>  0.0001  0.0003  0.4857 </r>
        <r>  0.0001  0.0003  0.4857 </r>
        <r>  0.0000  0.0058  0.0000 </r>
        <r>  0.0000  0.0058  0.0000 </r>
       </set>
       <set comment="band 4">
        <r>  0.0002  0.0004  0.4851 </r>
        <r>  0.0002  0.0004  0.4851 </r>
        <r>  0.0001  0.0064  0.0000 </r>
        <r>  0.0001  0.0064  0.0000 </r>
       </set>
       <set comment="band 5">
        <r>  0.0001  0.0003  0.4872 </r>
        <r>  0.0001  0.0003  0.4872 </r>
        <r>  0.0001  0.0047  0.0000 </r>
        <r>  0.0001  0.0047  0.0000 </r>
       </set>
       <set comment="band 6">
        <r>  0.0012  0.0002  0.4847 </r>
        <r>  0.0012  0.0002  0.4847 </r>
        <r>  0.0004  0.0050  0.0000 </r>
        <r>  0.0004  0.0050  0.0000 </r>
       </set>
       <set comment="band 7">
        <r>  0.0014  0.0002  0.4871 </r>
        <r>  0.0014  0.0002  0.4871 </r>
        <r>  0.0006  0.0018  0.0000 </r>
        <r>  0.0006  0.0018  0.0000 </r>
       </set>
       <set comment="band 8">
        <r>  0.0016  0.0004  0.4857 </r>
        <r>  0.0016  0.0004  0.4857 </r>
        <r>  0.0011  0.0030  0.0000 </r>
        <r>  0.0011  0.0030  0.0000 </r>
       </set>
       <set comment="band 9">
        <r>  0.0001  0.0000  0.4957 </r>
        <r>  0.0001  0.0000  0.4957 </r>
        <r>  0.0001  0.0003  0.0000 </r>
        <r>  0.0001  0.0003  0.0000 </r>
       </set>
       <set comment="band 10">
        <r>  0.0002  0.0001  0.4952 </r>
        <r>  0.0002  0.0001  0.4952 </r>
        <r>  0.0001  0.0003  0.0000 </r>
        <r>  0.0001  0.0003  0.0000 </r>
       </set>
       <set comment="band 11">
        <r>  0.0275  0.0061  0.3628 </r>
        <r>  0.0275  0.0061  0.3628 </r>
        <r>  0.0501  0.0065  0.0000 </r>
        <r>  0.0501  0.0065  0.0000 </r>
       </set>
       <set comment="band 12">
        <r>  0.0282  0.0138  0.2970 </r>
        <r>  0.0282  0.0138  0.2970 </r>
        <r>  0.0933  0.0061  0.0000 </r>
        <r>  0.0933  0.0061  0.0000 </r>
       </set>
       <set comment="band 13">
        <r>  0.1311  0.0260  0.0323 </r>
        <r>  0.1311  0.0260  0.0323 </r>
        <r>  0.0361  0.1339  0.0000 </r>
        <r>  0.0361  0.1339  0.0000 </r>
       </set>
       <set comment="band 14">
        <r>  0.1013  0.0287  0.0411 </r>
        <r>  0.1013  0.0287  0.0411 </r>
        <r>  0.0498  0.1408  0.0000 </r>
        <r>  0.0498  0.1408  0.0000 </r>
       </set>
       <set comment="band 15">
        <r>  0.0194  0.0901  0.0227 </r>
        <r>  0.0194  0.0901  0.0227 </r>
        <r>  0.0005  0.2065  0.0000 </r>
        <r>  0.0005  0.2065  0.0000 </r>
       </set>
       <set comment="band 16">
        <r>  0.0081  0.0885  0.0280 </r>
        <r>  0.0081  0.0885  0.0280 </r>
        <r>  0.0002  0.2209  0.0000 </r>
        <r>  0.0002  0.2209  0.0000 </r>
       </set>
       <set comment="band 17">
        <r>  0.0049  0.0758  0.0361 </r>
        <r>  0.0049  0.0758  0.0361 </r>
        <r>  0.0013  0.2371  0.0000 </r>
        <r>  0.0013  0.2371  0.0000 </r>
       </set>
       <set comment="band 18">
        <r>  0.0047  0.0715  0.0334 </r>
        <r>  0.0047  0.0715  0.0334 </r>
        <r>  0.0007  0.2566  0.0000 </r>
        <r>  0.0007  0.2566  0.0000 </r>
       </set>
       <set comment="band 19">
        <r>  0.0614  0.0708  0.0118 </r>
        <r>  0.0614  0.0708  0.0118 </r>
        <r>  0.0710  0.0925  0.0000 </r>
        <r>  0.0710  0.0925  0.0000 </r>
       </set>
       <set comment="band 20">
        <r>  0.0508  0.0555  0.0258 </r>
        <r>  0.0508  0.0555  0.0258 </r>
        <r>  0.0389  0.1231  0.0000 </r>
        <r>  0.0389  0.1231  0.0000 </r>
       </set>
       <set comment="band 21">
        <r>  0.1159  0.0763  0.0305 </r>
        <r>  0.1159  0.0763  0.0305 </r>
        <r>  0.0164  0.1019  0.0000 </r>
        <r>  0.0164  0.1019  0.0000 </r>
       </set>
       <set comment="band 22">
        <r>  0.1120  0.0739  0.0377 </r>
        <r>  0.1120  0.0739  0.0377 </r>
        <r>  0.0076  0.1015  0.0000 </r>
        <r>  0.0076  0.1015  0.0000 </r>
       </set>
       <set comment="band 23">
        <r>  0.0349  0.1418  0.0389 </r>
        <r>  0.0349  0.1418  0.0389 </r>
        <r>  0.0009  0.0682  0.0000 </r>
        <r>  0.0009  0.0682  0.0000 </r>
       </set>
       <set comment="band 24">
        <r>  0.0390  0.1457  0.0358 </r>
        <r>  0.0390  0.1457  0.0358 </r>
        <r>  0.0058  0.0862  0.0000 </r>
        <r>  0.0058  0.0862  0.0000 </r>
       </set>
      </set>
      <set comment="kpoint 13">
       <set comment="band 1">
        <r>  0.0147  0.0170  0.2117 </r>
        <r>  0.0135  0.0169  0.2228 </r>
        <r>  0.1771  0.0000  0.0000 </r>
        <r>  0.1767  0.0000  0.0000 </r>
       </set>
       <set comment="band 2">
        <r>  0.0046  0.0174  0.2505 </r>
        <r>  0.0058  0.0175  0.2391 </r>
        <r>  0.1666  0.0000  0.0000 </r>
        <r>  0.1671  0.0000  0.0000 </r>
       </set>
       <set comment="band 3">
        <r>  0.0005  0.0003  0.4110 </r>
        <r>  0.0006  0.0005  0.5556 </r>
        <r>  0.0001  0.0060  0.0000 </r>
        <r>  0.0000  0.0049  0.0000 </r>
       </set>
       <set comment="band 4">
        <r>  0.0008  0.0004  0.5432 </r>
        <r>  0.0003  0.0002  0.4270 </r>
        <r>  0.0002  0.0035  0.0000 </r>
        <r>  0.0001  0.0061  0.0000 </r>
       </set>
       <set comment="band 5">
        <r>  0.0001  0.0002  0.5508 </r>
        <r>  0.0004  0.0002  0.4244 </r>
        <r>  0.0000  0.0048  0.0000 </r>
        <r>  0.0000  0.0034  0.0000 </r>
       </set>
       <set comment="band 6">
        <r>  0.0001  0.0003  0.4652 </r>
        <r>  0.0001  0.0003  0.5160 </r>
        <r>  0.0001  0.0038  0.0000 </r>
        <r>  0.0001  0.0039  0.0000 </r>
       </set>
       <set comment="band 7">
        <r>  0.0003  0.0003  0.4833 </r>
        <r>  0.0006  0.0002  0.4985 </r>
        <r>  0.0003  0.0019  0.0000 </r>
        <r>  0.0000  0.0017  0.0000 </r>
       </set>
       <set comment="band 8">
        <r>  0.0004  0.0002  0.3928 </r>
        <r>  0.0003  0.0003  0.5910 </r>
        <r>  0.0001  0.0019  0.0000 </r>
        <r>  0.0002  0.0019  0.0000 </r>
       </set>
       <set comment="band 9">
        <r>  0.0001  0.0001  0.8159 </r>
        <r>  0.0000  0.0001  0.1751 </r>
        <r>  0.0000  0.0004  0.0000 </r>
        <r>  0.0002  0.0001  0.0000 </r>
       </set>
       <set comment="band 10">
        <r>  0.0000  0.0001  0.2598 </r>
        <r>  0.0000  0.0001  0.7328 </r>
        <r>  0.0001  0.0002  0.0000 </r>
        <r>  0.0000  0.0005  0.0000 </r>
       </set>
       <set comment="band 11">
        <r>  0.0204  0.0181  0.2763 </r>
        <r>  0.0227  0.0168  0.2953 </r>
        <r>  0.1085  0.0037  0.0000 </r>
        <r>  0.1119  0.0035  0.0000 </r>
       </set>
       <set comment="band 12">
        <r>  0.0116  0.0231  0.2726 </r>
        <r>  0.0087  0.0249  0.2546 </r>
        <r>  0.1389  0.0015  0.0000 </r>
        <r>  0.1356  0.0015  0.0000 </r>
       </set>
       <set comment="band 13">
        <r>  0.1659  0.0323  0.0098 </r>
        <r>  0.1632  0.0183  0.0196 </r>
        <r>  0.0074  0.1232  0.0000 </r>
        <r>  0.0038  0.1414  0.0000 </r>
       </set>
       <set comment="band 14">
        <r>  0.1428  0.0218  0.0257 </r>
        <r>  0.1506  0.0359  0.0166 </r>
        <r>  0.0159  0.1455  0.0000 </r>
        <r>  0.0206  0.1214  0.0000 </r>
       </set>
       <set comment="band 15">
        <r>  0.0218  0.0946  0.0182 </r>
        <r>  0.0141  0.0987  0.0185 </r>
        <r>  0.0033  0.1882  0.0000 </r>
        <r>  0.0022  0.1876  0.0000 </r>
       </set>
       <set comment="band 16">
        <r>  0.0055  0.0993  0.0301 </r>
        <r>  0.0069  0.0847  0.0235 </r>
        <r>  0.0026  0.1756  0.0000 </r>
        <r>  0.0019  0.2419  0.0000 </r>
       </set>
       <set comment="band 17">
        <r>  0.0155  0.0810  0.0180 </r>
        <r>  0.0145  0.0939  0.0241 </r>
        <r>  0.0027  0.2599  0.0000 </r>
        <r>  0.0036  0.1889  0.0000 </r>
       </set>
       <set comment="band 18">
        <r>  0.0002  0.0799  0.0267 </r>
        <r>  0.0005  0.0773  0.0282 </r>
        <r>  0.0000  0.2553  0.0000 </r>
        <r>  0.0000  0.2662  0.0000 </r>
       </set>
       <set comment="band 19">
        <r>  0.0544  0.0857  0.0534 </r>
        <r>  0.0906  0.0683  0.0231 </r>
        <r>  0.0483  0.0461  0.0000 </r>
        <r>  0.0496  0.0411  0.0000 </r>
       </set>
       <set comment="band 20">
        <r>  0.0626  0.0662  0.0182 </r>
        <r>  0.0492  0.0876  0.0606 </r>
        <r>  0.0406  0.0773  0.0000 </r>
        <r>  0.0358  0.0757  0.0000 </r>
       </set>
       <set comment="band 21">
        <r>  0.1396  0.0519  0.0518 </r>
        <r>  0.0921  0.0502  0.0302 </r>
        <r>  0.0067  0.0846  0.0000 </r>
        <r>  0.0097  0.1365  0.0000 </r>
       </set>
       <set comment="band 22">
        <r>  0.1456  0.0448  0.0248 </r>
        <r>  0.1265  0.0409  0.0357 </r>
        <r>  0.0002  0.1847  0.0000 </r>
        <r>  0.0076  0.1178  0.0000 </r>
       </set>
       <set comment="band 23">
        <r>  0.0104  0.0838  0.0456 </r>
        <r>  0.0280  0.1427  0.0449 </r>
        <r>  0.0156  0.0691  0.0000 </r>
        <r>  0.0035  0.0944  0.0000 </r>
       </set>
       <set comment="band 24">
        <r>  0.0109  0.1027  0.0370 </r>
        <r>  0.0467  0.0355  0.0368 </r>
        <r>  0.0023  0.1598  0.0000 </r>
        <r>  0.0079  0.1593  0.0000 </r>
       </set>
      </set>
      <set comment="kpoint 14">
       <set comment="band 1">
        <r>  0.0042  0.0177  0.2471 </r>
        <r>  0.0042  0.0178  0.2473 </r>
        <r>  0.1663  0.0000  0.0000 </r>
        <r>  0.1662  0.0000  0.0000 </r>
       </set>
       <set comment="band 2">
        <r>  0.0042  0.0178  0.2473 </r>
        <r>  0.0042  0.0177  0.2471 </r>
        <r>  0.1662  0.0000  0.0000 </r>
        <r>  0.1663  0.0000  0.0000 </r>
       </set>
       <set comment="band 3">
        <r>  0.0000  0.0004  0.4855 </r>
        <r>  0.0000  0.0004  0.4855 </r>
        <r>  0.0000  0.0051  0.0000 </r>
        <r>  0.0000  0.0051  0.0000 </r>
       </set>
       <set comment="band 4">
        <r>  0.0003  0.0004  0.4863 </r>
        <r>  0.0003  0.0004  0.4863 </r>
        <r>  0.0002  0.0044  0.0000 </r>
        <r>  0.0002  0.0044  0.0000 </r>
       </set>
       <set comment="band 5">
        <r>  0.0003  0.0004  0.4863 </r>
        <r>  0.0003  0.0004  0.4863 </r>
        <r>  0.0002  0.0044  0.0000 </r>
        <r>  0.0002  0.0044  0.0000 </r>
       </set>
       <set comment="band 6">
        <r>  0.0000  0.0002  0.4907 </r>
        <r>  0.0000  0.0002  0.4907 </r>
        <r>  0.0000  0.0033  0.0000 </r>
        <r>  0.0000  0.0033  0.0000 </r>
       </set>
       <set comment="band 7">
        <r>  0.0000  0.0001  0.4945 </r>
        <r>  0.0000  0.0001  0.4945 </r>
        <r>  0.0000  0.0001  0.0000 </r>
        <r>  0.0000  0.0001  0.0000 </r>
       </set>
       <set comment="band 8">
        <r>  0.0000  0.0002  0.4934 </r>
        <r>  0.0000  0.0002  0.4934 </r>
        <r>  0.0000  0.0003  0.0000 </r>
        <r>  0.0000  0.0003  0.0000 </r>
       </set>
       <set comment="band 9">
        <r>  0.0003  0.0001  0.4936 </r>
        <r>  0.0003  0.0001  0.4940 </r>
        <r>  0.0000  0.0014  0.0000 </r>
        <r>  0.0000  0.0014  0.0000 </r>
       </set>
       <set comment="band 10">
        <r>  0.0003  0.0001  0.4940 </r>
        <r>  0.0003  0.0001  0.4936 </r>
        <r>  0.0000  0.0014  0.0000 </r>
        <r>  0.0000  0.0014  0.0000 </r>
       </set>
       <set comment="band 11">
        <r>  0.0071  0.0238  0.2653 </r>
        <r>  0.0071  0.0238  0.2653 </r>
        <r>  0.1442  0.0005  0.0000 </r>
        <r>  0.1442  0.0005  0.0000 </r>
       </set>
       <set comment="band 12">
        <r>  0.0071  0.0238  0.2653 </r>
        <r>  0.0071  0.0238  0.2653 </r>
        <r>  0.1442  0.0005  0.0000 </r>
        <r>  0.1442  0.0005  0.0000 </r>
       </set>
       <set comment="band 13">
        <r>  0.1933  0.0141  0.0101 </r>
        <r>  0.1934  0.0141  0.0101 </r>
        <r>  0.0023  0.1371  0.0000 </r>
        <r>  0.0023  0.1371  0.0000 </r>
       </set>
       <set comment="band 14">
        <r>  0.1934  0.0141  0.0101 </r>
        <r>  0.1933  0.0141  0.0101 </r>
        <r>  0.0023  0.1371  0.0000 </r>
        <r>  0.0023  0.1371  0.0000 </r>
       </set>
       <set comment="band 15">
        <r>  0.0000  0.1132  0.0128 </r>
        <r>  0.0000  0.1132  0.0128 </r>
        <r>  0.0000  0.1604  0.0000 </r>
        <r>  0.0000  0.1604  0.0000 </r>
       </set>
       <set comment="band 16">
        <r>  0.0000  0.1048  0.0224 </r>
        <r>  0.0000  0.1048  0.0224 </r>
        <r>  0.0000  0.1786  0.0000 </r>
        <r>  0.0000  0.1786  0.0000 </r>
       </set>
       <set comment="band 17">
        <r>  0.0045  0.0846  0.0230 </r>
        <r>  0.0045  0.0846  0.0231 </r>
        <r>  0.0011  0.2495  0.0000 </r>
        <r>  0.0011  0.2496  0.0000 </r>
       </set>
       <set comment="band 18">
        <r>  0.0045  0.0846  0.0231 </r>
        <r>  0.0045  0.0846  0.0230 </r>
        <r>  0.0011  0.2496  0.0000 </r>
        <r>  0.0011  0.2495  0.0000 </r>
       </set>
       <set comment="band 19">
        <r>  0.1220  0.0870  0.0336 </r>
        <r>  0.1220  0.0870  0.0336 </r>
        <r>  0.0473  0.0388  0.0000 </r>
        <r>  0.0473  0.0388  0.0000 </r>
       </set>
       <set comment="band 20">
        <r>  0.1220  0.0870  0.0336 </r>
        <r>  0.1220  0.0870  0.0336 </r>
        <r>  0.0473  0.0388  0.0000 </r>
        <r>  0.0473  0.0388  0.0000 </r>
       </set>
       <set comment="band 21">
        <r>  0.0000  0.0672  0.0662 </r>
        <r>  0.0000  0.0672  0.0662 </r>
        <r>  0.0000  0.0904  0.0000 </r>
        <r>  0.0000  0.0904  0.0000 </r>
       </set>
       <set comment="band 22">
        <r>  0.0000  0.0323  0.0658 </r>
        <r>  0.0000  0.0323  0.0658 </r>
        <r>  0.0000  0.1577  0.0000 </r>
        <r>  0.0000  0.1577  0.0000 </r>
       </set>
       <set comment="band 23">
        <r>  0.0903  0.0475  0.0146 </r>
        <r>  0.0904  0.0475  0.0146 </r>
        <r>  0.0019  0.1973  0.0000 </r>
        <r>  0.0019  0.1973  0.0000 </r>
       </set>
       <set comment="band 24">
        <r>  0.0904  0.0475  0.0146 </r>
        <r>  0.0903  0.0475  0.0146 </r>
        <r>  0.0019  0.1973  0.0000 </r>
        <r>  0.0019  0.1973  0.0000 </r>
       </set>
      </set>
     </set>
    </set>
   </array>
  </projected>
 </calculation>
 <structure name="finalpos" >
  <crystal>
   <varray name="basis" >
    <v>       3.19792164      -0.00000000       0.00000000 </v>
    <v>      -1.59896082       2.76948138       0.00000000 </v>
    <v>       0.00000000       0.00000000       5.20734076 </v>
   </varray>
   <i name="volume">     46.11925325 </i>
   <varray name="rec_basis" >
    <v>       0.31270310       0.18053922      -0.00000000 </v>
    <v>       0.00000000       0.36107843      -0.00000000 </v>
    <v>      -0.00000000      -0.00000000       0.19203660 </v>
   </varray>
  </crystal>
  <varray name="positions" >
   <v>       0.66666667       0.33333333       0.49911170 </v>
   <v>       0.33333333       0.66666667       0.99911170 </v>
   <v>       0.66666667       0.33333333       0.87588830 </v>
   <v>       0.33333333       0.66666667       0.37588830 </v>
  </varray>
 </structure>
</modeling>
