unknown system                          
           1
     3.188930    0.000000    0.000000
    -1.594465    2.761695    0.000000
     0.000000    0.000000    5.192357
   Ga   N 
     2     2
Direct configuration=     1
   0.66666667  0.33333333  0.49908371
   0.33333333  0.66666667  0.99908371
   0.66666667  0.33333333  0.87591629
   0.33333333  0.66666667  0.37591629
unknown system                          
           1
     3.208176   -0.000000    0.000000
    -1.604088    2.778362    0.000000
     0.000000    0.000000    5.224429
   Ga   N 
     2     2
Direct configuration=     2
   0.66666667  0.33333333  0.49914321
   0.33333333  0.66666667  0.99914321
   0.66666667  0.33333333  0.87585679
   0.33333333  0.66666667  0.37585679
unknown system                          
           1
     3.197922   -0.000000    0.000000
    -1.598961    2.769481    0.000000
     0.000000    0.000000    5.207341
   Ga   N 
     2     2
Direct configuration=     3
   0.66666667  0.33333333  0.49911170
   0.33333333  0.66666667  0.99911170
   0.66666667  0.33333333  0.87588830
   0.33333333  0.66666667  0.37588830
