   4   4   1   0
  0.1151780E+02  0.3196922E-09  0.3196922E-09  0.5205169E-09  0.5000000E-15
  1.000000000000000E-004
  CAR 
 unknown system                          
     17.48463227    -12.02401373  301      5.68271078      1.00000000
    -12.024  0.0000E+00  0.0000E+00
    -11.926  0.0000E+00  0.0000E+00
    -11.827  0.0000E+00  0.0000E+00
    -11.729  0.0000E+00  0.0000E+00
    -11.631  0.0000E+00  0.0000E+00
    -11.532  0.0000E+00  0.0000E+00
    -11.434  0.0000E+00  0.0000E+00
    -11.335  0.0000E+00  0.0000E+00
    -11.237  0.2156E-16  0.2120E-17
    -11.139  0.6660E-12  0.6551E-13
    -11.040  0.3246E-08  0.3193E-09
    -10.942  0.2634E-05  0.2594E-06
    -10.844  0.3848E-03  0.3811E-04
    -10.745  0.1157E-01  0.1177E-02
    -10.647  0.8990E-01  0.1002E-01
    -10.549  0.2579E+00  0.3538E-01
    -10.450  0.4330E+00  0.7797E-01
    -10.352  0.6045E+00  0.1374E+00
    -10.253  0.8045E+00  0.2166E+00
    -10.155  0.1068E+01  0.3217E+00
    -10.057  0.1460E+01  0.4653E+00
     -9.958  0.2146E+01  0.6763E+00
     -9.860  0.3694E+01  0.1040E+01
     -9.762  0.7161E+01  0.1744E+01
     -9.663  0.1154E+02  0.2879E+01
     -9.565  0.9175E+01  0.3781E+01
     -9.467  0.2116E+01  0.3990E+01
     -9.368  0.1049E+00  0.4000E+01
     -9.270  0.9493E-03  0.4000E+01
     -9.172  0.1430E-05  0.4000E+01
     -9.073  0.3402E-09  0.4000E+01
     -8.975  0.1241E-13  0.4000E+01
     -8.876  0.0000E+00  0.4000E+01
     -8.778  0.1596E-16  0.4000E+01
     -8.680  0.2432E-11  0.4000E+01
     -8.581  0.2378E-07  0.4000E+01
     -8.483  0.3963E-04  0.4000E+01
     -8.385  0.1195E-01  0.4001E+01
     -8.286  0.7053E+00  0.4071E+01
     -8.188  0.9074E+01  0.4963E+01
     -8.090  0.3053E+02  0.7966E+01
     -7.991  0.4188E+02  0.1209E+02
     -7.893  0.4494E+02  0.1651E+02
     -7.794  0.3117E+02  0.1957E+02
     -7.696  0.8620E+01  0.2042E+02
     -7.598  0.1699E+01  0.2059E+02
     -7.499  0.1249E+01  0.2071E+02
     -7.401  0.1255E+01  0.2083E+02
     -7.303  0.1309E+01  0.2096E+02
     -7.204  0.1362E+01  0.2110E+02
     -7.106  0.1434E+01  0.2124E+02
     -7.008  0.1556E+01  0.2139E+02
     -6.909  0.1659E+01  0.2155E+02
     -6.811  0.1903E+01  0.2174E+02
     -6.712  0.2188E+01  0.2196E+02
     -6.614  0.2519E+01  0.2220E+02
     -6.516  0.2614E+01  0.2246E+02
     -6.417  0.2644E+01  0.2272E+02
     -6.319  0.2684E+01  0.2298E+02
     -6.221  0.2881E+01  0.2327E+02
     -6.122  0.3142E+01  0.2358E+02
     -6.024  0.2703E+01  0.2384E+02
     -5.926  0.1309E+01  0.2397E+02
     -5.827  0.2674E+00  0.2400E+02
     -5.729  0.1712E-01  0.2400E+02
     -5.630  0.2601E-03  0.2400E+02
     -5.532  0.7715E-06  0.2400E+02
     -5.434  0.3980E-09  0.2400E+02
     -5.335  0.3346E-13  0.2400E+02
     -5.237  0.0000E+00  0.2400E+02
     -5.139  0.0000E+00  0.2400E+02
     -5.040  0.0000E+00  0.2400E+02
     -4.942  0.0000E+00  0.2400E+02
     -4.844  0.0000E+00  0.2400E+02
     -4.745  0.0000E+00  0.2400E+02
     -4.647  0.0000E+00  0.2400E+02
     -4.548  0.0000E+00  0.2400E+02
     -4.450  0.0000E+00  0.2400E+02
     -4.352  0.0000E+00  0.2400E+02
     -4.253  0.0000E+00  0.2400E+02
     -4.155  0.0000E+00  0.2400E+02
     -4.057  0.0000E+00  0.2400E+02
     -3.958  0.0000E+00  0.2400E+02
     -3.860  0.0000E+00  0.2400E+02
     -3.762  0.0000E+00  0.2400E+02
     -3.663  0.0000E+00  0.2400E+02
     -3.565  0.0000E+00  0.2400E+02
     -3.467  0.0000E+00  0.2400E+02
     -3.368  0.0000E+00  0.2400E+02
     -3.270  0.0000E+00  0.2400E+02
     -3.171  0.0000E+00  0.2400E+02
     -3.073  0.0000E+00  0.2400E+02
     -2.975  0.0000E+00  0.2400E+02
     -2.876  0.0000E+00  0.2400E+02
     -2.778  0.0000E+00  0.2400E+02
     -2.680  0.0000E+00  0.2400E+02
     -2.581  0.0000E+00  0.2400E+02
     -2.483  0.0000E+00  0.2400E+02
     -2.385  0.0000E+00  0.2400E+02
     -2.286  0.5599E-16  0.2400E+02
     -2.188  0.1322E-11  0.2400E+02
     -2.089  0.4932E-08  0.2400E+02
     -1.991  0.3032E-05  0.2400E+02
     -1.893  0.3268E-03  0.2400E+02
     -1.794  0.6966E-02  0.2400E+02
     -1.696  0.3682E-01  0.2400E+02
     -1.598  0.7926E-01  0.2401E+02
     -1.499  0.1733E+00  0.2403E+02
     -1.401  0.4342E+00  0.2407E+02
     -1.303  0.7930E+00  0.2415E+02
     -1.204  0.1149E+01  0.2426E+02
     -1.106  0.1513E+01  0.2441E+02
     -1.007  0.1815E+01  0.2459E+02
     -0.909  0.2190E+01  0.2481E+02
     -0.811  0.2455E+01  0.2505E+02
     -0.712  0.2613E+01  0.2530E+02
     -0.614  0.2672E+01  0.2557E+02
     -0.516  0.2346E+01  0.2580E+02
     -0.417  0.1789E+01  0.2597E+02
     -0.319  0.1474E+01  0.2612E+02
     -0.221  0.1262E+01  0.2624E+02
     -0.122  0.1325E+01  0.2637E+02
     -0.024  0.1594E+01  0.2653E+02
      0.075  0.1467E+01  0.2667E+02
      0.173  0.1163E+01  0.2679E+02
      0.271  0.9815E+00  0.2689E+02
      0.370  0.1070E+01  0.2699E+02
      0.468  0.1069E+01  0.2710E+02
      0.566  0.1012E+01  0.2720E+02
      0.665  0.8560E+00  0.2728E+02
      0.763  0.7223E+00  0.2735E+02
      0.861  0.8365E+00  0.2743E+02
      0.960  0.1055E+01  0.2754E+02
      1.058  0.1495E+01  0.2768E+02
      1.157  0.1590E+01  0.2784E+02
      1.255  0.1482E+01  0.2799E+02
      1.353  0.1431E+01  0.2813E+02
      1.452  0.1286E+01  0.2825E+02
      1.550  0.1331E+01  0.2838E+02
      1.648  0.1477E+01  0.2853E+02
      1.747  0.1621E+01  0.2869E+02
      1.845  0.1489E+01  0.2884E+02
      1.943  0.1406E+01  0.2897E+02
      2.042  0.1658E+01  0.2914E+02
      2.140  0.1823E+01  0.2932E+02
      2.238  0.1688E+01  0.2948E+02
      2.337  0.1666E+01  0.2965E+02
      2.435  0.1821E+01  0.2982E+02
      2.534  0.2248E+01  0.3005E+02
      2.632  0.2242E+01  0.3027E+02
      2.730  0.2031E+01  0.3047E+02
      2.829  0.2206E+01  0.3068E+02
      2.927  0.2473E+01  0.3093E+02
      3.025  0.2521E+01  0.3117E+02
      3.124  0.2585E+01  0.3143E+02
      3.222  0.2600E+01  0.3168E+02
      3.320  0.2677E+01  0.3195E+02
      3.419  0.2975E+01  0.3224E+02
      3.517  0.3020E+01  0.3254E+02
      3.616  0.3128E+01  0.3285E+02
      3.714  0.3584E+01  0.3320E+02
      3.812  0.3787E+01  0.3357E+02
      3.911  0.3641E+01  0.3393E+02
      4.009  0.3115E+01  0.3423E+02
      4.107  0.2732E+01  0.3450E+02
      4.206  0.2565E+01  0.3476E+02
      4.304  0.2279E+01  0.3498E+02
      4.402  0.1914E+01  0.3517E+02
      4.501  0.1652E+01  0.3533E+02
      4.599  0.1455E+01  0.3547E+02
      4.698  0.1278E+01  0.3560E+02
      4.796  0.1118E+01  0.3571E+02
      4.894  0.9490E+00  0.3580E+02
      4.993  0.7985E+00  0.3588E+02
      5.091  0.6330E+00  0.3594E+02
      5.189  0.4032E+00  0.3598E+02
      5.288  0.1485E+00  0.3600E+02
      5.386  0.2018E-01  0.3600E+02
      5.484  0.7260E-03  0.3600E+02
      5.583  0.5563E-05  0.3600E+02
      5.681  0.7873E-08  0.3600E+02
      5.780  0.1881E-11  0.3600E+02
      5.878  0.6942E-16  0.3600E+02
      5.976  0.0000E+00  0.3600E+02
      6.075  0.0000E+00  0.3600E+02
      6.173  0.0000E+00  0.3600E+02
      6.271  0.0000E+00  0.3600E+02
      6.370  0.0000E+00  0.3600E+02
      6.468  0.0000E+00  0.3600E+02
      6.566  0.7558E-17  0.3600E+02
      6.665  0.2040E-12  0.3600E+02
      6.763  0.8215E-09  0.3600E+02
      6.862  0.5080E-06  0.3600E+02
      6.960  0.5003E-04  0.3600E+02
      7.058  0.8419E-03  0.3600E+02
      7.157  0.3184E-02  0.3600E+02
      7.255  0.8926E-02  0.3600E+02
      7.353  0.1650E-01  0.3600E+02
      7.452  0.1163E-01  0.3600E+02
      7.550  0.2347E-01  0.3601E+02
      7.648  0.3672E-01  0.3601E+02
      7.747  0.3121E-01  0.3601E+02
      7.845  0.3406E-01  0.3602E+02
      7.944  0.4998E-01  0.3602E+02
      8.042  0.5923E-01  0.3603E+02
      8.140  0.6506E-01  0.3603E+02
      8.239  0.7840E-01  0.3604E+02
      8.337  0.6340E-01  0.3605E+02
      8.435  0.9594E-01  0.3606E+02
      8.534  0.1274E+00  0.3607E+02
      8.632  0.1188E+00  0.3608E+02
      8.730  0.9978E-01  0.3609E+02
      8.829  0.1594E+00  0.3611E+02
      8.927  0.1919E+00  0.3613E+02
      9.025  0.1792E+00  0.3614E+02
      9.124  0.2003E+00  0.3616E+02
      9.222  0.2274E+00  0.3619E+02
      9.321  0.3288E+00  0.3622E+02
      9.419  0.5323E+00  0.3627E+02
      9.517  0.6819E+00  0.3634E+02
      9.616  0.9844E+00  0.3643E+02
      9.714  0.1300E+01  0.3656E+02
      9.812  0.1339E+01  0.3669E+02
      9.911  0.1367E+01  0.3683E+02
     10.009  0.1339E+01  0.3696E+02
     10.107  0.1505E+01  0.3711E+02
     10.206  0.1509E+01  0.3726E+02
     10.304  0.1501E+01  0.3740E+02
     10.403  0.1748E+01  0.3758E+02
     10.501  0.1701E+01  0.3774E+02
     10.599  0.1734E+01  0.3791E+02
     10.698  0.1976E+01  0.3811E+02
     10.796  0.2116E+01  0.3832E+02
     10.894  0.1933E+01  0.3851E+02
     10.993  0.1940E+01  0.3870E+02
     11.091  0.1908E+01  0.3888E+02
     11.189  0.1647E+01  0.3905E+02
     11.288  0.1541E+01  0.3920E+02
     11.386  0.1584E+01  0.3935E+02
     11.485  0.1497E+01  0.3950E+02
     11.583  0.1198E+01  0.3962E+02
     11.681  0.1131E+01  0.3973E+02
     11.780  0.1159E+01  0.3984E+02
     11.878  0.1193E+01  0.3996E+02
     11.976  0.9654E+00  0.4006E+02
     12.075  0.7670E+00  0.4013E+02
     12.173  0.8699E+00  0.4022E+02
     12.271  0.1209E+01  0.4034E+02
     12.370  0.1436E+01  0.4048E+02
     12.468  0.1616E+01  0.4064E+02
     12.567  0.1796E+01  0.4081E+02
     12.665  0.1949E+01  0.4101E+02
     12.763  0.2133E+01  0.4122E+02
     12.862  0.2128E+01  0.4142E+02
     12.960  0.2396E+01  0.4166E+02
     13.058  0.2871E+01  0.4194E+02
     13.157  0.3445E+01  0.4228E+02
     13.255  0.3648E+01  0.4264E+02
     13.353  0.3747E+01  0.4301E+02
     13.452  0.3122E+01  0.4332E+02
     13.550  0.2181E+01  0.4353E+02
     13.649  0.1510E+01  0.4368E+02
     13.747  0.8761E+00  0.4376E+02
     13.845  0.5390E+00  0.4382E+02
     13.944  0.4692E+00  0.4386E+02
     14.042  0.6353E+00  0.4393E+02
     14.140  0.9569E+00  0.4402E+02
     14.239  0.1148E+01  0.4413E+02
     14.337  0.1154E+01  0.4425E+02
     14.435  0.1136E+01  0.4436E+02
     14.534  0.1258E+01  0.4448E+02
     14.632  0.1704E+01  0.4465E+02
     14.730  0.2222E+01  0.4487E+02
     14.829  0.2723E+01  0.4514E+02
     14.927  0.3013E+01  0.4543E+02
     15.026  0.3099E+01  0.4574E+02
     15.124  0.3166E+01  0.4605E+02
     15.222  0.3061E+01  0.4635E+02
     15.321  0.2933E+01  0.4664E+02
     15.419  0.2677E+01  0.4690E+02
     15.517  0.2433E+01  0.4714E+02
     15.616  0.2214E+01  0.4736E+02
     15.714  0.2009E+01  0.4756E+02
     15.812  0.1599E+01  0.4771E+02
     15.911  0.1332E+01  0.4785E+02
     16.009  0.1019E+01  0.4795E+02
     16.108  0.4374E+00  0.4799E+02
     16.206  0.1037E+00  0.4800E+02
     16.304  0.1447E-01  0.4800E+02
     16.403  0.6384E-03  0.4800E+02
     16.501  0.5659E-05  0.4800E+02
     16.599  0.8577E-08  0.4800E+02
     16.698  0.2081E-11  0.4800E+02
     16.796  0.7390E-16  0.4800E+02
     16.894  0.0000E+00  0.4800E+02
     16.993  0.0000E+00  0.4800E+02
     17.091  0.0000E+00  0.4800E+02
     17.190  0.0000E+00  0.4800E+02
     17.288  0.0000E+00  0.4800E+02
     17.386  0.0000E+00  0.4800E+02
     17.485  0.0000E+00  0.4800E+02
     17.48463227    -12.02401373  301      5.68271078      1.00000000
    -12.024  0.0000E+00  0.0000E+00  0.0000E+00
    -11.926  0.0000E+00  0.0000E+00  0.0000E+00
    -11.827  0.0000E+00  0.0000E+00  0.0000E+00
    -11.729  0.0000E+00  0.0000E+00  0.0000E+00
    -11.631  0.0000E+00  0.0000E+00  0.0000E+00
    -11.532  0.0000E+00  0.0000E+00  0.0000E+00
    -11.434  0.0000E+00  0.0000E+00  0.0000E+00
    -11.335  0.0000E+00  0.0000E+00  0.0000E+00
    -11.237  0.2407E-17  0.5403E-20  0.1756E-19
    -11.139  0.7424E-13  0.2132E-15  0.6976E-15
    -11.040  0.3611E-09  0.1279E-11  0.4214E-11
    -10.942  0.2922E-06  0.1333E-08  0.4430E-08
    -10.844  0.4247E-04  0.2648E-06  0.8930E-06
    -10.745  0.1266E-02  0.1167E-04  0.4031E-04
    -10.647  0.9672E-02  0.1444E-03  0.5193E-03
    -10.549  0.2685E-01  0.6950E-03  0.2667E-02
    -10.450  0.4268E-01  0.1873E-02  0.7874E-02
    -10.352  0.5533E-01  0.3763E-02  0.1766E-01
    -10.253  0.6708E-01  0.6571E-02  0.3489E-01
    -10.155  0.7921E-01  0.1077E-01  0.6544E-01
    -10.057  0.9286E-01  0.1736E-01  0.1225E+00
     -9.958  0.1101E+00  0.2910E-01  0.2434E+00
     -9.860  0.1362E+00  0.5525E-01  0.5623E+00
     -9.762  0.1647E+00  0.1145E+00  0.1377E+01
     -9.663  0.1425E+00  0.1935E+00  0.2583E+01
     -9.565  0.6202E-01  0.1576E+00  0.2211E+01
     -9.467  0.9469E-02  0.3669E-01  0.5249E+00
     -9.368  0.3650E-03  0.1825E-02  0.2634E-01
     -9.270  0.2835E-05  0.1655E-04  0.2399E-03
     -9.172  0.3884E-08  0.2496E-07  0.3624E-06
     -9.073  0.8710E-12  0.5944E-11  0.8641E-10
     -8.975  0.3022E-16  0.2170E-15  0.3156E-14
     -8.876  0.0000E+00  0.0000E+00  0.0000E+00
     -8.778  0.4206E-20  0.2659E-20  0.7708E-17
     -8.680  0.5180E-15  0.4606E-15  0.1175E-11
     -8.581  0.5348E-11  0.4740E-11  0.1149E-07
     -8.483  0.9871E-08  0.8419E-08  0.1916E-04
     -8.385  0.3456E-05  0.2727E-05  0.5778E-02
     -8.286  0.2444E-03  0.1728E-03  0.3412E+00
     -8.188  0.3854E-02  0.2367E-02  0.4392E+01
     -8.090  0.1659E-01  0.8363E-02  0.1480E+02
     -7.991  0.2831E-01  0.1110E-01  0.2039E+02
     -7.893  0.2727E-01  0.9288E-02  0.2205E+02
     -7.794  0.2099E-01  0.5246E-02  0.1534E+02
     -7.696  0.2264E-01  0.3423E-02  0.4180E+01
     -7.598  0.2725E-01  0.4328E-02  0.7237E+00
     -7.499  0.3148E-01  0.5985E-02  0.4749E+00
     -7.401  0.3439E-01  0.7703E-02  0.4555E+00
     -7.303  0.3758E-01  0.9846E-02  0.4560E+00
     -7.204  0.3983E-01  0.1204E-01  0.4579E+00
     -7.106  0.4189E-01  0.1469E-01  0.4654E+00
     -7.008  0.4466E-01  0.1794E-01  0.4905E+00
     -6.909  0.4588E-01  0.2144E-01  0.5085E+00
     -6.811  0.4994E-01  0.2692E-01  0.5697E+00
     -6.712  0.5324E-01  0.3368E-01  0.6417E+00
     -6.614  0.5585E-01  0.4201E-01  0.7249E+00
     -6.516  0.5113E-01  0.4787E-01  0.7359E+00
     -6.417  0.4384E-01  0.5317E-01  0.7268E+00
     -6.319  0.3525E-01  0.5920E-01  0.7207E+00
     -6.221  0.2690E-01  0.6944E-01  0.7559E+00
     -6.122  0.1922E-01  0.8072E-01  0.8089E+00
     -6.024  0.1125E-01  0.7121E-01  0.6895E+00
     -5.926  0.3687E-02  0.3477E-01  0.3327E+00
     -5.827  0.4888E-03  0.7129E-02  0.6784E-01
     -5.729  0.2074E-04  0.4572E-03  0.4338E-02
     -5.630  0.2237E-06  0.6956E-05  0.6588E-04
     -5.532  0.5041E-09  0.2065E-07  0.1954E-06
     -5.434  0.2081E-12  0.1066E-10  0.1008E-09
     -5.335  0.1453E-16  0.8967E-15  0.8474E-14
     -5.237  0.0000E+00  0.0000E+00  0.0000E+00
     -5.139  0.0000E+00  0.0000E+00  0.0000E+00
     -5.040  0.0000E+00  0.0000E+00  0.0000E+00
     -4.942  0.0000E+00  0.0000E+00  0.0000E+00
     -4.844  0.0000E+00  0.0000E+00  0.0000E+00
     -4.745  0.0000E+00  0.0000E+00  0.0000E+00
     -4.647  0.0000E+00  0.0000E+00  0.0000E+00
     -4.548  0.0000E+00  0.0000E+00  0.0000E+00
     -4.450  0.0000E+00  0.0000E+00  0.0000E+00
     -4.352  0.0000E+00  0.0000E+00  0.0000E+00
     -4.253  0.0000E+00  0.0000E+00  0.0000E+00
     -4.155  0.0000E+00  0.0000E+00  0.0000E+00
     -4.057  0.0000E+00  0.0000E+00  0.0000E+00
     -3.958  0.0000E+00  0.0000E+00  0.0000E+00
     -3.860  0.0000E+00  0.0000E+00  0.0000E+00
     -3.762  0.0000E+00  0.0000E+00  0.0000E+00
     -3.663  0.0000E+00  0.0000E+00  0.0000E+00
     -3.565  0.0000E+00  0.0000E+00  0.0000E+00
     -3.467  0.0000E+00  0.0000E+00  0.0000E+00
     -3.368  0.0000E+00  0.0000E+00  0.0000E+00
     -3.270  0.0000E+00  0.0000E+00  0.0000E+00
     -3.171  0.0000E+00  0.0000E+00  0.0000E+00
     -3.073  0.0000E+00  0.0000E+00  0.0000E+00
     -2.975  0.0000E+00  0.0000E+00  0.0000E+00
     -2.876  0.0000E+00  0.0000E+00  0.0000E+00
     -2.778  0.0000E+00  0.0000E+00  0.0000E+00
     -2.680  0.0000E+00  0.0000E+00  0.0000E+00
     -2.581  0.0000E+00  0.0000E+00  0.0000E+00
     -2.483  0.0000E+00  0.0000E+00  0.0000E+00
     -2.385  0.0000E+00  0.0000E+00  0.0000E+00
     -2.286  0.6822E-17  0.3032E-17  0.1665E-18
     -2.188  0.1612E-12  0.7160E-13  0.3941E-14
     -2.089  0.6012E-09  0.2670E-09  0.1473E-10
     -1.991  0.3698E-06  0.1641E-06  0.9085E-08
     -1.893  0.3987E-04  0.1768E-04  0.9836E-06
     -1.794  0.8507E-03  0.3766E-03  0.2117E-04
     -1.696  0.4504E-02  0.1986E-02  0.1161E-03
     -1.598  0.9806E-02  0.4180E-02  0.3207E-03
     -1.499  0.2317E-01  0.7896E-02  0.1259E-02
     -1.401  0.6349E-01  0.1618E-01  0.4365E-02
     -1.303  0.1205E+00  0.2653E-01  0.8956E-02
     -1.204  0.1771E+00  0.3662E-01  0.1379E-01
     -1.106  0.2351E+00  0.4669E-01  0.1883E-01
     -1.007  0.2870E+00  0.5337E-01  0.2299E-01
     -0.909  0.3560E+00  0.5974E-01  0.2801E-01
     -0.811  0.4055E+00  0.6329E-01  0.3204E-01
     -0.712  0.4322E+00  0.6597E-01  0.3524E-01
     -0.614  0.4410E+00  0.6639E-01  0.3769E-01
     -0.516  0.3802E+00  0.5905E-01  0.3640E-01
     -0.417  0.2746E+00  0.4864E-01  0.3300E-01
     -0.319  0.2123E+00  0.4359E-01  0.3131E-01
     -0.221  0.1760E+00  0.3877E-01  0.2830E-01
     -0.122  0.1752E+00  0.4379E-01  0.3120E-01
     -0.024  0.2035E+00  0.5540E-01  0.3818E-01
      0.075  0.1836E+00  0.5214E-01  0.3535E-01
      0.173  0.1377E+00  0.4363E-01  0.2945E-01
      0.271  0.1022E+00  0.4327E-01  0.2537E-01
      0.370  0.9709E-01  0.5339E-01  0.2869E-01
      0.468  0.8738E-01  0.5696E-01  0.3008E-01
      0.566  0.7757E-01  0.5728E-01  0.2778E-01
      0.665  0.5931E-01  0.5338E-01  0.2175E-01
      0.763  0.4666E-01  0.4606E-01  0.1902E-01
      0.861  0.5357E-01  0.5401E-01  0.2176E-01
      0.960  0.6217E-01  0.7433E-01  0.2472E-01
      1.058  0.8132E-01  0.1096E+00  0.3470E-01
      1.157  0.8276E-01  0.1196E+00  0.3595E-01
      1.255  0.7284E-01  0.1146E+00  0.3254E-01
      1.353  0.6727E-01  0.1114E+00  0.3210E-01
      1.452  0.5711E-01  0.1004E+00  0.2990E-01
      1.550  0.5614E-01  0.1032E+00  0.3263E-01
      1.648  0.6124E-01  0.1136E+00  0.3723E-01
      1.747  0.5957E-01  0.1317E+00  0.3807E-01
      1.845  0.4869E-01  0.1247E+00  0.3433E-01
      1.943  0.4339E-01  0.1179E+00  0.3302E-01
      2.042  0.4991E-01  0.1380E+00  0.3971E-01
      2.140  0.5286E-01  0.1528E+00  0.4332E-01
      2.238  0.4289E-01  0.1454E+00  0.3902E-01
      2.337  0.3908E-01  0.1427E+00  0.3995E-01
      2.435  0.3997E-01  0.1567E+00  0.4351E-01
      2.534  0.4517E-01  0.1949E+00  0.5336E-01
      2.632  0.3911E-01  0.1959E+00  0.5378E-01
      2.730  0.2869E-01  0.1804E+00  0.4854E-01
      2.829  0.3286E-01  0.1912E+00  0.5517E-01
      2.927  0.3730E-01  0.2090E+00  0.6524E-01
      3.025  0.3399E-01  0.2097E+00  0.6968E-01
      3.124  0.3026E-01  0.2152E+00  0.7232E-01
      3.222  0.2777E-01  0.2155E+00  0.7384E-01
      3.320  0.2574E-01  0.2177E+00  0.7847E-01
      3.419  0.2638E-01  0.2374E+00  0.8982E-01
      3.517  0.2623E-01  0.2359E+00  0.9368E-01
      3.616  0.2211E-01  0.2415E+00  0.9817E-01
      3.714  0.2029E-01  0.2744E+00  0.1131E+00
      3.812  0.1631E-01  0.2866E+00  0.1210E+00
      3.911  0.1396E-01  0.2677E+00  0.1219E+00
      4.009  0.1242E-01  0.2192E+00  0.1115E+00
      4.107  0.9497E-02  0.1842E+00  0.1036E+00
      4.206  0.7272E-02  0.1666E+00  0.1015E+00
      4.304  0.5960E-02  0.1413E+00  0.9428E-01
      4.402  0.4361E-02  0.1123E+00  0.8304E-01
      4.501  0.2941E-02  0.9153E-01  0.7501E-01
      4.599  0.2248E-02  0.7538E-01  0.6906E-01
      4.698  0.1838E-02  0.6132E-01  0.6340E-01
      4.796  0.1320E-02  0.4950E-01  0.5769E-01
      4.894  0.5440E-03  0.3861E-01  0.5096E-01
      4.993  0.3596E-03  0.2916E-01  0.4465E-01
      5.091  0.2779E-03  0.2046E-01  0.3677E-01
      5.189  0.8070E-04  0.1160E-01  0.2422E-01
      5.288  0.1317E-04  0.3889E-02  0.9134E-02
      5.386  0.1026E-05  0.4969E-03  0.1262E-02
      5.484  0.1856E-07  0.1717E-04  0.4587E-04
      5.583  0.6152E-10  0.1281E-06  0.3538E-06
      5.681  0.3491E-13  0.1783E-09  0.5029E-09
      5.780  0.3270E-17  0.4216E-13  0.1205E-12
      5.878  0.4793E-24  0.1540E-17  0.4457E-17
      5.976  0.0000E+00  0.0000E+00  0.0000E+00
      6.075  0.0000E+00  0.0000E+00  0.0000E+00
      6.173  0.0000E+00  0.0000E+00  0.0000E+00
      6.271  0.0000E+00  0.0000E+00  0.0000E+00
      6.370  0.0000E+00  0.0000E+00  0.0000E+00
      6.468  0.0000E+00  0.0000E+00  0.0000E+00
      6.566  0.9784E-18  0.8631E-20  0.6685E-20
      6.665  0.2641E-13  0.2330E-15  0.1805E-15
      6.763  0.1063E-09  0.9381E-12  0.7266E-12
      6.862  0.6575E-07  0.5801E-09  0.4493E-09
      6.960  0.6476E-05  0.5720E-07  0.4431E-07
      7.058  0.1089E-03  0.9901E-06  0.7696E-06
      7.157  0.4051E-03  0.5522E-05  0.4455E-05
      7.255  0.1075E-02  0.3160E-04  0.2651E-04
      7.353  0.1955E-02  0.6662E-04  0.5631E-04
      7.452  0.1332E-02  0.5851E-04  0.4777E-04
      7.550  0.2523E-02  0.1698E-03  0.1230E-03
      7.648  0.3898E-02  0.2924E-03  0.1968E-03
      7.747  0.3220E-02  0.2914E-03  0.1742E-03
      7.845  0.3393E-02  0.3567E-03  0.2009E-03
      7.944  0.4853E-02  0.5894E-03  0.2957E-03
      8.042  0.5667E-02  0.7732E-03  0.3414E-03
      8.140  0.6035E-02  0.9643E-03  0.3681E-03
      8.239  0.7156E-02  0.1222E-02  0.4410E-03
      8.337  0.5693E-02  0.1080E-02  0.3387E-03
      8.435  0.8436E-02  0.1822E-02  0.4760E-03
      8.534  0.1101E-01  0.2596E-02  0.6066E-03
      8.632  0.1013E-01  0.2578E-02  0.5389E-03
      8.730  0.8369E-02  0.2379E-02  0.4111E-03
      8.829  0.1314E-01  0.4062E-02  0.6093E-03
      8.927  0.1570E-01  0.5227E-02  0.6681E-03
      9.025  0.1449E-01  0.5283E-02  0.5684E-03
      9.124  0.1588E-01  0.6447E-02  0.5890E-03
      9.222  0.1797E-01  0.7811E-02  0.7462E-03
      9.321  0.2602E-01  0.1383E-01  0.2328E-02
      9.419  0.4247E-01  0.2808E-01  0.7171E-02
      9.517  0.5669E-01  0.4165E-01  0.1257E-01
      9.616  0.8354E-01  0.6345E-01  0.1842E-01
      9.714  0.1064E+00  0.8441E-01  0.2162E-01
      9.812  0.1095E+00  0.8939E-01  0.2411E-01
      9.911  0.1135E+00  0.9313E-01  0.2686E-01
     10.009  0.1057E+00  0.9183E-01  0.2609E-01
     10.107  0.1158E+00  0.1030E+00  0.3084E-01
     10.206  0.1227E+00  0.1044E+00  0.3227E-01
     10.304  0.1213E+00  0.1058E+00  0.3626E-01
     10.403  0.1336E+00  0.1258E+00  0.4798E-01
     10.501  0.1265E+00  0.1237E+00  0.4933E-01
     10.599  0.1315E+00  0.1227E+00  0.5077E-01
     10.698  0.1429E+00  0.1410E+00  0.6532E-01
     10.796  0.1443E+00  0.1546E+00  0.7837E-01
     10.894  0.1329E+00  0.1383E+00  0.7051E-01
     10.993  0.1529E+00  0.1335E+00  0.6464E-01
     11.091  0.1550E+00  0.1345E+00  0.6483E-01
     11.189  0.1394E+00  0.1170E+00  0.5641E-01
     11.288  0.1354E+00  0.1045E+00  0.5157E-01
     11.386  0.1317E+00  0.1025E+00  0.5534E-01
     11.485  0.1175E+00  0.9480E-01  0.5423E-01
     11.583  0.9033E-01  0.7507E-01  0.4335E-01
     11.681  0.7733E-01  0.7013E-01  0.4160E-01
     11.780  0.9235E-01  0.6627E-01  0.3942E-01
     11.878  0.9987E-01  0.6333E-01  0.4235E-01
     11.976  0.7758E-01  0.5023E-01  0.3506E-01
     12.075  0.6714E-01  0.3822E-01  0.2601E-01
     12.173  0.7983E-01  0.4211E-01  0.2874E-01
     12.271  0.1031E+00  0.6101E-01  0.4365E-01
     12.370  0.1243E+00  0.7586E-01  0.5349E-01
     12.468  0.1466E+00  0.8893E-01  0.6133E-01
     12.567  0.1658E+00  0.1039E+00  0.6959E-01
     12.665  0.1902E+00  0.1157E+00  0.7433E-01
     12.763  0.2168E+00  0.1306E+00  0.8198E-01
     12.862  0.2234E+00  0.1332E+00  0.8254E-01
     12.960  0.2519E+00  0.1499E+00  0.9134E-01
     13.058  0.2993E+00  0.1721E+00  0.1083E+00
     13.157  0.3584E+00  0.2088E+00  0.1280E+00
     13.255  0.3824E+00  0.2194E+00  0.1292E+00
     13.353  0.3956E+00  0.2196E+00  0.1237E+00
     13.452  0.3109E+00  0.1861E+00  0.1003E+00
     13.550  0.1930E+00  0.1364E+00  0.6693E-01
     13.649  0.1199E+00  0.1048E+00  0.4387E-01
     13.747  0.6253E-01  0.6748E-01  0.2534E-01
     13.845  0.2995E-01  0.5671E-01  0.1720E-01
     13.944  0.2067E-01  0.5620E-01  0.1585E-01
     14.042  0.2738E-01  0.6211E-01  0.1981E-01
     14.140  0.4620E-01  0.8445E-01  0.2801E-01
     14.239  0.5760E-01  0.1016E+00  0.3343E-01
     14.337  0.5291E-01  0.1092E+00  0.3681E-01
     14.435  0.4640E-01  0.1071E+00  0.4059E-01
     14.534  0.4826E-01  0.1278E+00  0.4938E-01
     14.632  0.6042E-01  0.1872E+00  0.6984E-01
     14.730  0.7125E-01  0.2578E+00  0.9774E-01
     14.829  0.7797E-01  0.3301E+00  0.1264E+00
     14.927  0.7673E-01  0.3937E+00  0.1330E+00
     15.026  0.7244E-01  0.4289E+00  0.1250E+00
     15.124  0.6843E-01  0.4417E+00  0.1213E+00
     15.222  0.6403E-01  0.4305E+00  0.1172E+00
     15.321  0.6100E-01  0.4347E+00  0.1103E+00
     15.419  0.5403E-01  0.3988E+00  0.1017E+00
     15.517  0.4572E-01  0.3687E+00  0.9679E-01
     15.616  0.3778E-01  0.3822E+00  0.8672E-01
     15.714  0.2968E-01  0.4026E+00  0.7410E-01
     15.812  0.2170E-01  0.3362E+00  0.5823E-01
     15.911  0.1414E-01  0.2986E+00  0.4818E-01
     16.009  0.8526E-02  0.2399E+00  0.3643E-01
     16.108  0.4201E-02  0.9882E-01  0.1603E-01
     16.206  0.1592E-02  0.1871E-01  0.4261E-02
     16.304  0.2925E-03  0.2014E-02  0.6578E-03
     16.403  0.1377E-04  0.8061E-04  0.2995E-04
     16.501  0.1236E-06  0.6970E-06  0.2678E-06
     16.599  0.1879E-09  0.1049E-08  0.4066E-09
     16.698  0.4570E-13  0.2536E-12  0.9864E-13
     16.796  0.1625E-17  0.8975E-17  0.3504E-17
     16.894  0.0000E+00  0.0000E+00  0.0000E+00
     16.993  0.0000E+00  0.0000E+00  0.0000E+00
     17.091  0.0000E+00  0.0000E+00  0.0000E+00
     17.190  0.0000E+00  0.0000E+00  0.0000E+00
     17.288  0.0000E+00  0.0000E+00  0.0000E+00
     17.386  0.0000E+00  0.0000E+00  0.0000E+00
     17.485  0.0000E+00  0.0000E+00  0.0000E+00
     17.48463227    -12.02401373  301      5.68271078      1.00000000
    -12.024  0.0000E+00  0.0000E+00  0.0000E+00
    -11.926  0.0000E+00  0.0000E+00  0.0000E+00
    -11.827  0.0000E+00  0.0000E+00  0.0000E+00
    -11.729  0.0000E+00  0.0000E+00  0.0000E+00
    -11.631  0.0000E+00  0.0000E+00  0.0000E+00
    -11.532  0.0000E+00  0.0000E+00  0.0000E+00
    -11.434  0.0000E+00  0.0000E+00  0.0000E+00
    -11.335  0.0000E+00  0.0000E+00  0.0000E+00
    -11.237  0.2407E-17  0.5403E-20  0.1756E-19
    -11.139  0.7424E-13  0.2132E-15  0.6976E-15
    -11.040  0.3611E-09  0.1279E-11  0.4214E-11
    -10.942  0.2922E-06  0.1333E-08  0.4430E-08
    -10.844  0.4247E-04  0.2648E-06  0.8930E-06
    -10.745  0.1266E-02  0.1167E-04  0.4031E-04
    -10.647  0.9672E-02  0.1444E-03  0.5193E-03
    -10.549  0.2685E-01  0.6950E-03  0.2667E-02
    -10.450  0.4268E-01  0.1873E-02  0.7874E-02
    -10.352  0.5533E-01  0.3763E-02  0.1766E-01
    -10.253  0.6708E-01  0.6571E-02  0.3489E-01
    -10.155  0.7921E-01  0.1077E-01  0.6544E-01
    -10.057  0.9286E-01  0.1736E-01  0.1225E+00
     -9.958  0.1101E+00  0.2910E-01  0.2434E+00
     -9.860  0.1362E+00  0.5525E-01  0.5623E+00
     -9.762  0.1647E+00  0.1145E+00  0.1377E+01
     -9.663  0.1425E+00  0.1935E+00  0.2583E+01
     -9.565  0.6202E-01  0.1576E+00  0.2211E+01
     -9.467  0.9469E-02  0.3669E-01  0.5249E+00
     -9.368  0.3650E-03  0.1825E-02  0.2634E-01
     -9.270  0.2835E-05  0.1655E-04  0.2399E-03
     -9.172  0.3884E-08  0.2496E-07  0.3624E-06
     -9.073  0.8710E-12  0.5944E-11  0.8641E-10
     -8.975  0.3022E-16  0.2170E-15  0.3156E-14
     -8.876  0.0000E+00  0.0000E+00  0.0000E+00
     -8.778  0.4206E-20  0.2659E-20  0.7708E-17
     -8.680  0.5180E-15  0.4606E-15  0.1175E-11
     -8.581  0.5348E-11  0.4740E-11  0.1149E-07
     -8.483  0.9871E-08  0.8419E-08  0.1916E-04
     -8.385  0.3456E-05  0.2727E-05  0.5778E-02
     -8.286  0.2444E-03  0.1728E-03  0.3412E+00
     -8.188  0.3854E-02  0.2367E-02  0.4392E+01
     -8.090  0.1659E-01  0.8363E-02  0.1480E+02
     -7.991  0.2831E-01  0.1110E-01  0.2039E+02
     -7.893  0.2727E-01  0.9288E-02  0.2205E+02
     -7.794  0.2099E-01  0.5246E-02  0.1534E+02
     -7.696  0.2264E-01  0.3423E-02  0.4180E+01
     -7.598  0.2725E-01  0.4328E-02  0.7237E+00
     -7.499  0.3148E-01  0.5985E-02  0.4749E+00
     -7.401  0.3439E-01  0.7703E-02  0.4555E+00
     -7.303  0.3758E-01  0.9846E-02  0.4560E+00
     -7.204  0.3983E-01  0.1204E-01  0.4579E+00
     -7.106  0.4189E-01  0.1469E-01  0.4654E+00
     -7.008  0.4466E-01  0.1794E-01  0.4905E+00
     -6.909  0.4588E-01  0.2144E-01  0.5085E+00
     -6.811  0.4994E-01  0.2692E-01  0.5697E+00
     -6.712  0.5324E-01  0.3368E-01  0.6417E+00
     -6.614  0.5585E-01  0.4201E-01  0.7249E+00
     -6.516  0.5113E-01  0.4787E-01  0.7359E+00
     -6.417  0.4384E-01  0.5317E-01  0.7268E+00
     -6.319  0.3525E-01  0.5920E-01  0.7207E+00
     -6.221  0.2690E-01  0.6944E-01  0.7559E+00
     -6.122  0.1922E-01  0.8072E-01  0.8089E+00
     -6.024  0.1125E-01  0.7121E-01  0.6895E+00
     -5.926  0.3687E-02  0.3477E-01  0.3327E+00
     -5.827  0.4888E-03  0.7129E-02  0.6784E-01
     -5.729  0.2074E-04  0.4572E-03  0.4338E-02
     -5.630  0.2237E-06  0.6956E-05  0.6588E-04
     -5.532  0.5041E-09  0.2065E-07  0.1954E-06
     -5.434  0.2081E-12  0.1066E-10  0.1008E-09
     -5.335  0.1453E-16  0.8967E-15  0.8474E-14
     -5.237  0.0000E+00  0.0000E+00  0.0000E+00
     -5.139  0.0000E+00  0.0000E+00  0.0000E+00
     -5.040  0.0000E+00  0.0000E+00  0.0000E+00
     -4.942  0.0000E+00  0.0000E+00  0.0000E+00
     -4.844  0.0000E+00  0.0000E+00  0.0000E+00
     -4.745  0.0000E+00  0.0000E+00  0.0000E+00
     -4.647  0.0000E+00  0.0000E+00  0.0000E+00
     -4.548  0.0000E+00  0.0000E+00  0.0000E+00
     -4.450  0.0000E+00  0.0000E+00  0.0000E+00
     -4.352  0.0000E+00  0.0000E+00  0.0000E+00
     -4.253  0.0000E+00  0.0000E+00  0.0000E+00
     -4.155  0.0000E+00  0.0000E+00  0.0000E+00
     -4.057  0.0000E+00  0.0000E+00  0.0000E+00
     -3.958  0.0000E+00  0.0000E+00  0.0000E+00
     -3.860  0.0000E+00  0.0000E+00  0.0000E+00
     -3.762  0.0000E+00  0.0000E+00  0.0000E+00
     -3.663  0.0000E+00  0.0000E+00  0.0000E+00
     -3.565  0.0000E+00  0.0000E+00  0.0000E+00
     -3.467  0.0000E+00  0.0000E+00  0.0000E+00
     -3.368  0.0000E+00  0.0000E+00  0.0000E+00
     -3.270  0.0000E+00  0.0000E+00  0.0000E+00