Automatically generated mesh
     427
Reciprocal lattice
    0.00000000000000    0.00000000000000    0.03571428571428             2
    0.04166666666666    0.00000000000000    0.03571428571428            12
    0.08333333333334    0.00000000000000    0.03571428571428            12
    0.12500000000000    0.00000000000000    0.03571428571428            12
    0.16666666666666    0.00000000000000    0.03571428571428            12
    0.20833333333334   -0.00000000000000    0.03571428571428            12
    0.25000000000000    0.00000000000000    0.03571428571428            12
    0.29166666666666    0.00000000000000    0.03571428571428            12
    0.33333333333334    0.00000000000000    0.03571428571428            12
    0.37500000000000    0.00000000000000    0.03571428571428            12
    0.41666666666666    0.00000000000000    0.03571428571428            12
    0.45833333333334    0.00000000000000    0.03571428571428            12
    0.50000000000000    0.00000000000000    0.03571428571428             6
    0.04166666666666    0.04166666666666    0.03571428571428            12
    0.08333333333334    0.04166666666666    0.03571428571428            24
    0.12500000000000    0.04166666666666    0.03571428571428            24
    0.16666666666666    0.04166666666666    0.03571428571428            24
    0.20833333333334    0.04166666666666    0.03571428571428            24
    0.25000000000000    0.04166666666666    0.03571428571428            24
    0.29166666666666    0.04166666666666    0.03571428571428            24
    0.33333333333334    0.04166666666666    0.03571428571428            24
    0.37500000000000    0.04166666666666    0.03571428571428            24
    0.41666666666666    0.04166666666666    0.03571428571428            24
    0.45833333333334    0.04166666666666    0.03571428571428            24
    0.08333333333334    0.08333333333334    0.03571428571428            12
    0.12500000000000    0.08333333333334    0.03571428571428            24
    0.16666666666666    0.08333333333334    0.03571428571428            24
    0.20833333333334    0.08333333333334    0.03571428571428            24
    0.25000000000000    0.08333333333334    0.03571428571428            24
    0.29166666666666    0.08333333333334    0.03571428571428            24
    0.33333333333334    0.08333333333334    0.03571428571428            24
    0.37500000000000    0.08333333333334    0.03571428571428            24
    0.41666666666666    0.08333333333334    0.03571428571428            24
    0.45833333333334    0.08333333333334    0.03571428571428            12
    0.12500000000000    0.12500000000000    0.03571428571428            12
    0.16666666666666    0.12500000000000    0.03571428571428            24
    0.20833333333334    0.12500000000000    0.03571428571428            24
    0.25000000000000    0.12500000000000    0.03571428571428            24
    0.29166666666666    0.12500000000000    0.03571428571428            24
    0.33333333333334    0.12500000000000    0.03571428571428            24
    0.37500000000000    0.12500000000000    0.03571428571428            24
    0.41666666666666    0.12500000000000    0.03571428571428            24
    0.16666666666666    0.16666666666666    0.03571428571428            12
    0.20833333333334    0.16666666666666    0.03571428571428            24
    0.25000000000000    0.16666666666666    0.03571428571428            24
    0.29166666666666    0.16666666666666    0.03571428571428            24
    0.33333333333334    0.16666666666666    0.03571428571428            24
    0.37500000000000    0.16666666666666    0.03571428571428            24
    0.41666666666666    0.16666666666666    0.03571428571428            12
    0.20833333333334    0.20833333333334    0.03571428571428            12
    0.25000000000000    0.20833333333334    0.03571428571428            24
    0.29166666666666    0.20833333333334    0.03571428571428            24
    0.33333333333334    0.20833333333334    0.03571428571428            24
    0.37500000000000    0.20833333333334    0.03571428571428            24
    0.25000000000000    0.25000000000000    0.03571428571428            12
    0.29166666666666    0.25000000000000    0.03571428571428            24
    0.33333333333334    0.25000000000000    0.03571428571428            24
    0.37500000000000    0.25000000000000    0.03571428571428            12
    0.29166666666666    0.29166666666666    0.03571428571428            12
    0.33333333333334    0.29166666666666    0.03571428571428            24
    0.33333333333334    0.33333333333334    0.03571428571428             4
    0.00000000000000    0.00000000000000    0.10714285714285             2
    0.04166666666666    0.00000000000000    0.10714285714285            12
    0.08333333333334    0.00000000000000    0.10714285714285            12
    0.12500000000000    0.00000000000000    0.10714285714285            12
    0.16666666666666    0.00000000000000    0.10714285714285            12
    0.20833333333334   -0.00000000000000    0.10714285714285            12
    0.25000000000000    0.00000000000000    0.10714285714285            12
    0.29166666666666    0.00000000000000    0.10714285714285            12
    0.33333333333334    0.00000000000000    0.10714285714285            12
    0.37500000000000    0.00000000000000    0.10714285714285            12
    0.41666666666666    0.00000000000000    0.10714285714285            12
    0.45833333333334    0.00000000000000    0.10714285714285            12
    0.50000000000000    0.00000000000000    0.10714285714285             6
    0.04166666666666    0.04166666666666    0.10714285714285            12
    0.08333333333334    0.04166666666666    0.10714285714285            24
    0.12500000000000    0.04166666666666    0.10714285714285            24
    0.16666666666666    0.04166666666666    0.10714285714285            24
    0.20833333333334    0.04166666666666    0.10714285714285            24
    0.25000000000000    0.04166666666666    0.10714285714285            24
    0.29166666666666    0.04166666666666    0.10714285714285            24
    0.33333333333334    0.04166666666666    0.10714285714285            24
    0.37500000000000    0.04166666666666    0.10714285714285            24
    0.41666666666666    0.04166666666666    0.10714285714285            24
    0.45833333333334    0.04166666666666    0.10714285714285            24
    0.08333333333334    0.08333333333334    0.10714285714285            12
    0.12500000000000    0.08333333333334    0.10714285714285            24
    0.16666666666666    0.08333333333334    0.10714285714285            24
    0.20833333333334    0.08333333333334    0.10714285714285            24
    0.25000000000000    0.08333333333334    0.10714285714285            24
    0.29166666666666    0.08333333333334    0.10714285714285            24
    0.33333333333334    0.08333333333334    0.10714285714285            24
    0.37500000000000    0.08333333333334    0.10714285714285            24
    0.41666666666666    0.08333333333334    0.10714285714285            24
    0.45833333333334    0.08333333333334    0.10714285714285            12
    0.12500000000000    0.12500000000000    0.10714285714285            12
    0.16666666666666    0.12500000000000    0.10714285714285            24
    0.20833333333334    0.12500000000000    0.10714285714285            24
    0.25000000000000    0.12500000000000    0.10714285714285            24
    0.29166666666666    0.12500000000000    0.10714285714285            24
    0.33333333333334    0.12500000000000    0.10714285714285            24
    0.37500000000000    0.12500000000000    0.10714285714285            24
    0.41666666666666    0.12500000000000    0.10714285714285            24
    0.16666666666666    0.16666666666666    0.10714285714285            12
    0.20833333333334    0.16666666666666    0.10714285714285            24
    0.25000000000000    0.16666666666666    0.10714285714285            24
    0.29166666666666    0.16666666666666    0.10714285714285            24
    0.33333333333334    0.16666666666666    0.10714285714285            24
    0.37500000000000    0.16666666666666    0.10714285714285            24
    0.41666666666666    0.16666666666666    0.10714285714285            12
    0.20833333333334    0.20833333333334    0.10714285714285            12
    0.25000000000000    0.20833333333334    0.10714285714285            24
    0.29166666666666    0.20833333333334    0.10714285714285            24
    0.33333333333334    0.20833333333334    0.10714285714285            24
    0.37500000000000    0.20833333333334    0.10714285714285            24
    0.25000000000000    0.25000000000000    0.10714285714285            12
    0.29166666666666    0.25000000000000    0.10714285714285            24
    0.33333333333334    0.25000000000000    0.10714285714285            24
    0.37500000000000    0.25000000000000    0.10714285714285            12
    0.29166666666666    0.29166666666666    0.10714285714285            12
    0.33333333333334    0.29166666666666    0.10714285714285            24
    0.33333333333334    0.33333333333334    0.10714285714285             4
    0.00000000000000    0.00000000000000    0.17857142857143             2
    0.04166666666666    0.00000000000000    0.17857142857143            12
    0.08333333333334    0.00000000000000    0.17857142857143            12
    0.12500000000000    0.00000000000000    0.17857142857143            12
    0.16666666666666    0.00000000000000    0.17857142857143            12
    0.20833333333334   -0.00000000000000    0.17857142857143            12
    0.25000000000000    0.00000000000000    0.17857142857143            12
    0.29166666666666    0.00000000000000    0.17857142857143            12
    0.33333333333334    0.00000000000000    0.17857142857143            12
    0.37500000000000    0.00000000000000    0.17857142857143            12
    0.41666666666666    0.00000000000000    0.17857142857143            12
    0.45833333333334    0.00000000000000    0.17857142857143            12
    0.50000000000000    0.00000000000000    0.17857142857143             6
    0.04166666666666    0.04166666666666    0.17857142857143            12
    0.08333333333334    0.04166666666666    0.17857142857143            24
    0.12500000000000    0.04166666666666    0.17857142857143            24
    0.16666666666666    0.04166666666666    0.17857142857143            24
    0.20833333333334    0.04166666666666    0.17857142857143            24
    0.25000000000000    0.04166666666666    0.17857142857143            24
    0.29166666666666    0.04166666666666    0.17857142857143            24
    0.33333333333334    0.04166666666666    0.17857142857143            24
    0.37500000000000    0.04166666666666    0.17857142857143            24
    0.41666666666666    0.04166666666666    0.17857142857143            24
    0.45833333333334    0.04166666666666    0.17857142857143            24
    0.08333333333334    0.08333333333334    0.17857142857143            12
    0.12500000000000    0.08333333333334    0.17857142857143            24
    0.16666666666666    0.08333333333334    0.17857142857143            24
    0.20833333333334    0.08333333333334    0.17857142857143            24
    0.25000000000000    0.08333333333334    0.17857142857143            24
    0.29166666666666    0.08333333333334    0.17857142857143            24
    0.33333333333334    0.08333333333334    0.17857142857143            24
    0.37500000000000    0.08333333333334    0.17857142857143            24
    0.41666666666666    0.08333333333334    0.17857142857143            24
    0.45833333333334    0.08333333333334    0.17857142857143            12
    0.12500000000000    0.12500000000000    0.17857142857143            12
    0.16666666666666    0.12500000000000    0.17857142857143            24
    0.20833333333334    0.12500000000000    0.17857142857143            24
    0.25000000000000    0.12500000000000    0.17857142857143            24
    0.29166666666666    0.12500000000000    0.17857142857143            24
    0.33333333333334    0.12500000000000    0.17857142857143            24
    0.37500000000000    0.12500000000000    0.17857142857143            24
    0.41666666666666    0.12500000000000    0.17857142857143            24
    0.16666666666666    0.16666666666666    0.17857142857143            12
    0.20833333333334    0.16666666666666    0.17857142857143            24
    0.25000000000000    0.16666666666666    0.17857142857143            24
    0.29166666666666    0.16666666666666    0.17857142857143            24
    0.33333333333334    0.16666666666666    0.17857142857143            24
    0.37500000000000    0.16666666666666    0.17857142857143            24
    0.41666666666666    0.16666666666666    0.17857142857143            12
    0.20833333333334    0.20833333333334    0.17857142857143            12
    0.25000000000000    0.20833333333334    0.17857142857143            24
    0.29166666666666    0.20833333333334    0.17857142857143            24
    0.33333333333334    0.20833333333334    0.17857142857143            24
    0.37500000000000    0.20833333333334    0.17857142857143            24
    0.25000000000000    0.25000000000000    0.17857142857143            12
    0.29166666666666    0.25000000000000    0.17857142857143            24
    0.33333333333334    0.25000000000000    0.17857142857143            24
    0.37500000000000    0.25000000000000    0.17857142857143            12
    0.29166666666666    0.29166666666666    0.17857142857143            12
    0.33333333333334    0.29166666666666    0.17857142857143            24
    0.33333333333334    0.33333333333334    0.17857142857143             4
    0.00000000000000    0.00000000000000    0.25000000000000             2
    0.04166666666666    0.00000000000000    0.25000000000000            12
    0.08333333333334    0.00000000000000    0.25000000000000            12
    0.12500000000000    0.00000000000000    0.25000000000000            12
    0.16666666666666    0.00000000000000    0.25000000000000            12
    0.20833333333334   -0.00000000000000    0.25000000000000            12
    0.25000000000000    0.00000000000000    0.25000000000000            12
    0.29166666666666    0.00000000000000    0.25000000000000            12
    0.33333333333334    0.00000000000000    0.25000000000000            12
    0.37500000000000    0.00000000000000    0.25000000000000            12
    0.41666666666666    0.00000000000000    0.25000000000000            12
    0.45833333333334    0.00000000000000    0.25000000000000            12
    0.50000000000000    0.00000000000000    0.25000000000000             6
    0.04166666666666    0.04166666666666    0.25000000000000            12
    0.08333333333334    0.04166666666666    0.25000000000000            24
    0.12500000000000    0.04166666666666    0.25000000000000            24
    0.16666666666666    0.04166666666666    0.25000000000000            24
    0.20833333333334    0.04166666666666    0.25000000000000            24
    0.25000000000000    0.04166666666666    0.25000000000000            24
    0.29166666666666    0.04166666666666    0.25000000000000            24
    0.33333333333334    0.04166666666666    0.25000000000000            24
    0.37500000000000    0.04166666666666    0.25000000000000            24
    0.41666666666666    0.04166666666666    0.25000000000000            24
    0.45833333333334    0.04166666666666    0.25000000000000            24
    0.08333333333334    0.08333333333334    0.25000000000000            12
    0.12500000000000    0.08333333333334    0.25000000000000            24
    0.16666666666666    0.08333333333334    0.25000000000000            24
    0.20833333333334    0.08333333333334    0.25000000000000            24
    0.25000000000000    0.08333333333334    0.25000000000000            24
    0.29166666666666    0.08333333333334    0.25000000000000            24
    0.33333333333334    0.08333333333334    0.25000000000000            24
    0.37500000000000    0.08333333333334    0.25000000000000            24
    0.41666666666666    0.08333333333334    0.25000000000000            24
    0.45833333333334    0.08333333333334    0.25000000000000            12
    0.12500000000000    0.12500000000000    0.25000000000000            12
    0.16666666666666    0.12500000000000    0.25000000000000            24
    0.20833333333334    0.12500000000000    0.25000000000000            24
    0.25000000000000    0.12500000000000    0.25000000000000            24
    0.29166666666666    0.12500000000000    0.25000000000000            24
    0.33333333333334    0.12500000000000    0.25000000000000            24
    0.37500000000000    0.12500000000000    0.25000000000000            24
    0.41666666666666    0.12500000000000    0.25000000000000            24
    0.16666666666666    0.16666666666666    0.25000000000000            12
    0.20833333333334    0.16666666666666    0.25000000000000            24
    0.25000000000000    0.16666666666666    0.25000000000000            24
    0.29166666666666    0.16666666666666    0.25000000000000            24
    0.33333333333334    0.16666666666666    0.25000000000000            24
    0.37500000000000    0.16666666666666    0.25000000000000            24
    0.41666666666666    0.16666666666666    0.25000000000000            12
    0.20833333333334    0.20833333333334    0.25000000000000            12
    0.25000000000000    0.20833333333334    0.25000000000000            24
    0.29166666666666    0.20833333333334    0.25000000000000            24
    0.33333333333334    0.20833333333334    0.25000000000000            24
    0.37500000000000    0.20833333333334    0.25000000000000            24
    0.25000000000000    0.25000000000000    0.25000000000000            12
    0.29166666666666    0.25000000000000    0.25000000000000            24
    0.33333333333334    0.25000000000000    0.25000000000000            24
    0.37500000000000    0.25000000000000    0.25000000000000            12
    0.29166666666666    0.29166666666666    0.25000000000000            12
    0.33333333333334    0.29166666666666    0.25000000000000            24
    0.33333333333334    0.33333333333334    0.25000000000000             4
    0.00000000000000    0.00000000000000    0.32142857142857             2
    0.04166666666666    0.00000000000000    0.32142857142857            12
    0.08333333333334    0.00000000000000    0.32142857142857            12
    0.12500000000000    0.00000000000000    0.32142857142857            12
    0.16666666666666    0.00000000000000    0.32142857142857            12
    0.20833333333334   -0.00000000000000    0.32142857142857            12
    0.25000000000000    0.00000000000000    0.32142857142857            12
    0.29166666666666    0.00000000000000    0.32142857142857            12
    0.33333333333334    0.00000000000000    0.32142857142857            12
    0.37500000000000    0.00000000000000    0.32142857142857            12
    0.41666666666666    0.00000000000000    0.32142857142857            12
    0.45833333333334    0.00000000000000    0.32142857142857            12
    0.50000000000000    0.00000000000000    0.32142857142857             6
    0.04166666666666    0.04166666666666    0.32142857142857            12
    0.08333333333334    0.04166666666666    0.32142857142857            24
    0.12500000000000    0.04166666666666    0.32142857142857            24
    0.16666666666666    0.04166666666666    0.32142857142857            24
    0.20833333333334    0.04166666666666    0.32142857142857            24
    0.25000000000000    0.04166666666666    0.32142857142857            24
    0.29166666666666    0.04166666666666    0.32142857142857            24
    0.33333333333334    0.04166666666666    0.32142857142857            24
    0.37500000000000    0.04166666666666    0.32142857142857            24
    0.41666666666666    0.04166666666666    0.32142857142857            24
    0.45833333333334    0.04166666666666    0.32142857142857            24
    0.08333333333334    0.08333333333334    0.32142857142857            12
    0.12500000000000    0.08333333333334    0.32142857142857            24
    0.16666666666666    0.08333333333334    0.32142857142857            24
    0.20833333333334    0.08333333333334    0.32142857142857            24
    0.25000000000000    0.08333333333334    0.32142857142857            24
    0.29166666666666    0.08333333333334    0.32142857142857            24
    0.33333333333334    0.08333333333334    0.32142857142857            24
    0.37500000000000    0.08333333333334    0.32142857142857            24
    0.41666666666666    0.08333333333334    0.32142857142857            24
    0.45833333333334    0.08333333333334    0.32142857142857            12
    0.12500000000000    0.12500000000000    0.32142857142857            12
    0.16666666666666    0.12500000000000    0.32142857142857            24
    0.20833333333334    0.12500000000000    0.32142857142857            24
    0.25000000000000    0.12500000000000    0.32142857142857            24
    0.29166666666666    0.12500000000000    0.32142857142857            24
    0.33333333333334    0.12500000000000    0.32142857142857            24
    0.37500000000000    0.12500000000000    0.32142857142857            24
    0.41666666666666    0.12500000000000    0.32142857142857            24
    0.16666666666666    0.16666666666666    0.32142857142857            12
    0.20833333333334    0.16666666666666    0.32142857142857            24
    0.25000000000000    0.16666666666666    0.32142857142857            24
    0.29166666666666    0.16666666666666    0.32142857142857            24
    0.33333333333334    0.16666666666666    0.32142857142857            24
    0.37500000000000    0.16666666666666    0.32142857142857            24
    0.41666666666666    0.16666666666666    0.32142857142857            12
    0.20833333333334    0.20833333333334    0.32142857142857            12
    0.25000000000000    0.20833333333334    0.32142857142857            24
    0.29166666666666    0.20833333333334    0.32142857142857            24
    0.33333333333334    0.20833333333334    0.32142857142857            24
    0.37500000000000    0.20833333333334    0.32142857142857            24
    0.25000000000000    0.25000000000000    0.32142857142857            12
    0.29166666666666    0.25000000000000    0.32142857142857            24
    0.33333333333334    0.25000000000000    0.32142857142857            24
    0.37500000000000    0.25000000000000    0.32142857142857            12
    0.29166666666666    0.29166666666666    0.32142857142857            12
    0.33333333333334    0.29166666666666    0.32142857142857            24
    0.33333333333334    0.33333333333334    0.32142857142857             4
    0.00000000000000    0.00000000000000    0.39285714285715             2
    0.04166666666666    0.00000000000000    0.39285714285715            12
    0.08333333333334    0.00000000000000    0.39285714285715            12
    0.12500000000000    0.00000000000000    0.39285714285715            12
    0.16666666666666    0.00000000000000    0.39285714285715            12
    0.20833333333334   -0.00000000000000    0.39285714285715            12
    0.25000000000000    0.00000000000000    0.39285714285715            12
    0.29166666666666    0.00000000000000    0.39285714285715            12
    0.33333333333334    0.00000000000000    0.39285714285715            12
    0.37500000000000    0.00000000000000    0.39285714285715            12
    0.41666666666666    0.00000000000000    0.39285714285715            12
    0.45833333333334    0.00000000000000    0.39285714285715            12
    0.50000000000000    0.00000000000000    0.39285714285715             6
    0.04166666666666    0.04166666666666    0.39285714285715            12
    0.08333333333334    0.04166666666666    0.39285714285715            24
    0.12500000000000    0.04166666666666    0.39285714285715            24
    0.16666666666666    0.04166666666666    0.39285714285715            24
    0.20833333333334    0.04166666666666    0.39285714285715            24
    0.25000000000000    0.04166666666666    0.39285714285715            24
    0.29166666666666    0.04166666666666    0.39285714285715            24
    0.33333333333334    0.04166666666666    0.39285714285715            24
    0.37500000000000    0.04166666666666    0.39285714285715            24
    0.41666666666666    0.04166666666666    0.39285714285715            24
    0.45833333333334    0.04166666666666    0.39285714285715            24
    0.08333333333334    0.08333333333334    0.39285714285715            12
    0.12500000000000    0.08333333333334    0.39285714285715            24
    0.16666666666666    0.08333333333334    0.39285714285715            24
    0.20833333333334    0.08333333333334    0.39285714285715            24
    0.25000000000000    0.08333333333334    0.39285714285715            24
    0.29166666666666    0.08333333333334    0.39285714285715            24
    0.33333333333334    0.08333333333334    0.39285714285715            24
    0.37500000000000    0.08333333333334    0.39285714285715            24
    0.41666666666666    0.08333333333334    0.39285714285715            24
    0.45833333333334    0.08333333333334    0.39285714285715            12
    0.12500000000000    0.12500000000000    0.39285714285715            12
    0.16666666666666    0.12500000000000    0.39285714285715            24
    0.20833333333334    0.12500000000000    0.39285714285715            24
    0.25000000000000    0.12500000000000    0.39285714285715            24
    0.29166666666666    0.12500000000000    0.39285714285715            24
    0.33333333333334    0.12500000000000    0.39285714285715            24
    0.37500000000000    0.12500000000000    0.39285714285715            24
    0.41666666666666    0.12500000000000    0.39285714285715            24
    0.16666666666666    0.16666666666666    0.39285714285715            12
    0.20833333333334    0.16666666666666    0.39285714285715            24
    0.25000000000000    0.16666666666666    0.39285714285715            24
    0.29166666666666    0.16666666666666    0.39285714285715            24
    0.33333333333334    0.16666666666666    0.39285714285715            24
    0.37500000000000    0.16666666666666    0.39285714285715            24
    0.41666666666666    0.16666666666666    0.39285714285715            12
    0.20833333333334    0.20833333333334    0.39285714285715            12
    0.25000000000000    0.20833333333334    0.39285714285715            24
    0.29166666666666    0.20833333333334    0.39285714285715            24
    0.33333333333334    0.20833333333334    0.39285714285715            24
    0.37500000000000    0.20833333333334    0.39285714285715            24
    0.25000000000000    0.25000000000000    0.39285714285715            12
    0.29166666666666    0.25000000000000    0.39285714285715            24
    0.33333333333334    0.25000000000000    0.39285714285715            24
    0.37500000000000    0.25000000000000    0.39285714285715            12
    0.29166666666666    0.29166666666666    0.39285714285715            12
    0.33333333333334    0.29166666666666    0.39285714285715            24
    0.33333333333334    0.33333333333334    0.39285714285715             4
    0.00000000000000    0.00000000000000    0.46428571428572             2
    0.04166666666666    0.00000000000000    0.46428571428572            12
    0.08333333333334    0.00000000000000    0.46428571428572            12
    0.12500000000000    0.00000000000000    0.46428571428572            12
    0.16666666666666    0.00000000000000    0.46428571428572            12
    0.20833333333334   -0.00000000000000    0.46428571428572            12
    0.25000000000000    0.00000000000000    0.46428571428572            12
    0.29166666666666    0.00000000000000    0.46428571428572            12
    0.33333333333334    0.00000000000000    0.46428571428572            12
    0.37500000000000    0.00000000000000    0.46428571428572            12
    0.41666666666666    0.00000000000000    0.46428571428572            12
    0.45833333333334    0.00000000000000    0.46428571428572            12
    0.50000000000000    0.00000000000000    0.46428571428572             6
    0.04166666666666    0.04166666666666    0.46428571428572            12
    0.08333333333334    0.04166666666666    0.46428571428572            24
    0.12500000000000    0.04166666666666    0.46428571428572            24
    0.16666666666666    0.04166666666666    0.46428571428572            24
    0.20833333333334    0.04166666666666    0.46428571428572            24
    0.25000000000000    0.04166666666666    0.46428571428572            24
    0.29166666666666    0.04166666666666    0.46428571428572            24
    0.33333333333334    0.04166666666666    0.46428571428572            24
    0.37500000000000    0.04166666666666    0.46428571428572            24
    0.41666666666666    0.04166666666666    0.46428571428572            24
    0.45833333333334    0.04166666666666    0.46428571428572            24
    0.08333333333334    0.08333333333334    0.46428571428572            12
    0.12500000000000    0.08333333333334    0.46428571428572            24
    0.16666666666666    0.08333333333334    0.46428571428572            24
    0.20833333333334    0.08333333333334    0.46428571428572            24
    0.25000000000000    0.08333333333334    0.46428571428572            24
    0.29166666666666    0.08333333333334    0.46428571428572            24
    0.33333333333334    0.08333333333334    0.46428571428572            24
    0.37500000000000    0.08333333333334    0.46428571428572            24
    0.41666666666666    0.08333333333334    0.46428571428572            24