       N       E                     dE             d eps       ncg     rms          rms(c)
DAV:   1     0.244672796509E+03    0.24467E+03   -0.15655E+04 22184   0.239E+03
DAV:   2     0.171203602426E+00   -0.24450E+03   -0.23385E+03 23104   0.457E+02
DAV:   3    -0.274721805225E+02   -0.27643E+02   -0.27413E+02 24200   0.130E+02
DAV:   4    -0.282523637189E+02   -0.78018E+00   -0.77909E+00 26176   0.247E+01
DAV:   5    -0.282654698809E+02   -0.13106E-01   -0.13102E-01 24376   0.282E+00    0.108E+01
DAV:   6    -0.242375373789E+02    0.40279E+01   -0.12672E+01 34992   0.517E+01    0.317E+00
DAV:   7    -0.243371669083E+02   -0.99630E-01   -0.14544E+00 22232   0.927E+00    0.280E+00
DAV:   8    -0.243340080283E+02    0.31589E-02   -0.17755E-01 33376   0.589E+00    0.755E-01
DAV:   9    -0.243190310847E+02    0.14977E-01   -0.65109E-02 35576   0.422E+00    0.351E-01
DAV:  10    -0.243197847227E+02   -0.75364E-03   -0.37612E-03 22584   0.514E-01    0.766E-02
DAV:  11    -0.243196519588E+02    0.13276E-03   -0.11083E-03 30456   0.606E-01    0.363E-02
DAV:  12    -0.243196606214E+02   -0.86625E-05   -0.11397E-04 22008   0.780E-02    0.203E-02
DAV:  13    -0.243196633112E+02   -0.26898E-05   -0.74374E-05 29952   0.111E-01    0.276E-02
DAV:  14    -0.243196607336E+02    0.25776E-05   -0.14920E-05 29968   0.384E-02    0.891E-03
DAV:  15    -0.243196607989E+02   -0.65307E-07   -0.12097E-06 15960   0.761E-03
   1 F= -.24319661E+02 E0= -.24319661E+02  d E =-.748047E-13
 Linear response reoptimize wavefunctions
DAV:   1    -0.243196608101E+02   -0.11200E-07   -0.25784E-07 35384   0.510E-03
DAV:   2    -0.243196608120E+02   -0.19336E-08   -0.19183E-08 22712   0.101E-03
DAV:   3    -0.243196608121E+02   -0.81855E-11   -0.93600E-11 13208   0.790E-05
 Linear response G [H, r] |phi>, progress :
  Direction:   1
       N       E                     dE             d eps       ncg     rms
RMM:   1    -0.888776675883E+02   -0.88878E+02    0.11212E+02 24500   0.336E+02
RMM:   2    -0.852340816533E+02    0.36436E+01   -0.25668E+02 37266   0.824E+01
RMM:   3    -0.883280029301E+02   -0.30939E+01   -0.20381E+01 41921   0.266E+01
RMM:   4    -0.884997439276E+02   -0.17174E+00   -0.18010E+00 42842   0.630E+00
RMM:   5    -0.885084255381E+02   -0.86816E-02   -0.14890E-01 43254   0.175E+00
RMM:   6    -0.885104727001E+02   -0.20472E-02   -0.20406E-02 43461   0.625E-01
RMM:   7    -0.885112484581E+02   -0.77576E-03   -0.41346E-03 44368   0.225E-01
RMM:   8    -0.885111894215E+02    0.59037E-04   -0.72129E-05 44242   0.887E-02
RMM:   9    -0.885112745435E+02   -0.85122E-04   -0.28699E-04 45112   0.358E-02
RMM:  10    -0.885112452420E+02    0.29302E-04    0.11256E-04 42701   0.153E-02
RMM:  11    -0.885112614436E+02   -0.16202E-04   -0.25000E-05 39942   0.700E-03
RMM:  12    -0.885112585524E+02    0.28912E-05    0.79372E-06 33599   0.368E-03
RMM:  13    -0.885112608751E+02   -0.23227E-05   -0.14185E-05 29518   0.230E-03
RMM:  14    -0.885112585405E+02    0.23347E-05    0.99010E-06 25480   0.178E-03
RMM:  15    -0.885112601969E+02   -0.16565E-05   -0.85105E-06 22730   0.159E-03
RMM:  16    -0.885112587464E+02    0.14505E-05    0.11140E-05 20728   0.153E-03
RMM:  17    -0.885112611094E+02   -0.23630E-05   -0.14350E-05 19961   0.152E-03
 Linear response G [H, r] |phi>, progress :
  Direction:   2
       N       E                     dE             d eps       ncg     rms
RMM:   1    -0.865167000187E+02   -0.86517E+02    0.35640E+01 24932   0.328E+02
RMM:   2    -0.931327463871E+02   -0.66160E+01   -0.21037E+02 37555   0.801E+01
RMM:   3    -0.983711041979E+02   -0.52384E+01   -0.19197E+01 41889   0.261E+01
RMM:   4    -0.985801969489E+02   -0.20909E+00   -0.16130E+00 42313   0.610E+00
RMM:   5    -0.985960268070E+02   -0.15830E-01   -0.11328E-01 43446   0.175E+00
RMM:   6    -0.986006676729E+02   -0.46409E-02    0.86974E-04 43231   0.620E-01
RMM:   7    -0.986027436298E+02   -0.20760E-02    0.46240E-03 44304   0.217E-01
RMM:   8    -0.986033997258E+02   -0.65610E-03    0.16621E-03 44191   0.853E-02
RMM:   9    -0.986035785203E+02   -0.17879E-03    0.52959E-04 44869   0.343E-02
RMM:  10    -0.986036591165E+02   -0.80596E-04   -0.16642E-04 41718   0.142E-02
RMM:  11    -0.986036402278E+02    0.18889E-04    0.44683E-05 38858   0.666E-03
RMM:  12    -0.986036518230E+02   -0.11595E-04   -0.67340E-05 32465   0.365E-03
RMM:  13    -0.986036480449E+02    0.37781E-05   -0.28676E-05 28533   0.241E-03
RMM:  14    -0.986036509690E+02   -0.29241E-05   -0.60456E-05 24466   0.197E-03
RMM:  15    -0.986036497742E+02    0.11948E-05   -0.44009E-05 21997   0.180E-03
RMM:  16    -0.986036501689E+02   -0.39466E-06   -0.42958E-05 20413   0.176E-03
RMM:  17    -0.986036495249E+02    0.64401E-06   -0.38969E-05 19811   0.176E-03
 Linear response G [H, r] |phi>, progress :
  Direction:   3
       N       E                     dE             d eps       ncg     rms
RMM:   1    -0.841119277134E+02   -0.84112E+02    0.91336E+01 24733   0.323E+02
RMM:   2    -0.900451515804E+02   -0.59332E+01   -0.18953E+02 37454   0.761E+01
RMM:   3    -0.932208661360E+02   -0.31757E+01   -0.14434E+01 41361   0.234E+01
RMM:   4    -0.933434685499E+02   -0.12260E+00   -0.11938E+00 42329   0.542E+00
RMM:   5    -0.933489820462E+02   -0.55135E-02   -0.12825E-01 43246   0.151E+00
RMM:   6    -0.933499605643E+02   -0.97852E-03   -0.27969E-02 43088   0.519E-01
RMM:   7    -0.933493333457E+02    0.62722E-03   -0.54225E-03 43961   0.182E-01
RMM:   8    -0.933491974208E+02    0.13592E-03   -0.15582E-03 43903   0.695E-02
RMM:   9    -0.933490868693E+02    0.11055E-03   -0.72460E-05 44010   0.274E-02
RMM:  10    -0.933490710515E+02    0.15818E-04    0.16040E-04 40066   0.114E-02
RMM:  11    -0.933490531744E+02    0.17877E-04    0.35334E-04 36062   0.536E-03
RMM:  12    -0.933490560307E+02   -0.28562E-05    0.32776E-04 29450   0.302E-03
RMM:  13    -0.933490555738E+02    0.45686E-06    0.33261E-04 24742   0.213E-03
RMM:  14    -0.933490394652E+02    0.16109E-04    0.49361E-04 21591   0.182E-03
RMM:  15    -0.933490502086E+02   -0.10743E-04    0.39285E-04 19834   0.172E-03
RMM:  16    -0.933490655580E+02   -0.15349E-04    0.16697E-04 18963   0.168E-03
 Linear response to external field (no local field effect), progress :
  Direction:   1
       N       E                     dE             d eps       ncg     rms          rms(c)
RMM:   1    -0.927508409758E-01   -0.92751E-01    0.27080E+00 22437   0.878E+00
RMM:   2    -0.508905832406E+00   -0.41615E+00   -0.23594E-01 40069   0.222E+00
RMM:   3    -0.525123518265E+00   -0.16218E-01   -0.39377E-02 41849   0.628E-01
RMM:   4    -0.525807635915E+00   -0.68412E-03   -0.23898E-03 42223   0.174E-01
RMM:   5    -0.525883825154E+00   -0.76189E-04   -0.27326E-04 42131   0.496E-02
RMM:   6    -0.525891024718E+00   -0.71996E-05   -0.39412E-05 42046   0.178E-02
RMM:   7    -0.525893002848E+00   -0.19781E-05   -0.83090E-06 39025   0.654E-03
RMM:   8    -0.525893197732E+00   -0.19488E-06   -0.11057E-06 33259   0.260E-03
 Linear response to external field (no local field effect), progress :
  Direction:   2
       N       E                     dE             d eps       ncg     rms          rms(c)
RMM:   1    -0.864284277571E-01   -0.86428E-01    0.42227E+00 22355   0.989E+00
RMM:   2    -0.705536671052E+00   -0.61911E+00   -0.19932E-01 40152   0.228E+00
RMM:   3    -0.725128832767E+00   -0.19592E-01   -0.45471E-02 41923   0.627E-01
RMM:   4    -0.726040193951E+00   -0.91136E-03   -0.32150E-03 42131   0.180E-01
RMM:   5    -0.726128812330E+00   -0.88618E-04   -0.35104E-04 42319   0.536E-02
RMM:   6    -0.726137911001E+00   -0.90987E-05   -0.58174E-05 42019   0.193E-02
RMM:   7    -0.726140665811E+00   -0.27548E-05   -0.14598E-05 38335   0.750E-03
RMM:   8    -0.726140917647E+00   -0.25184E-06   -0.19229E-06 33419   0.313E-03
 Linear response to external field (no local field effect), progress :
  Direction:   3
       N       E                     dE             d eps       ncg     rms          rms(c)
RMM:   1    -0.985544740721E-01   -0.98554E-01    0.34945E+00 22480   0.916E+00
RMM:   2    -0.633835573939E+00   -0.53528E+00   -0.12110E-01 39705   0.206E+00
RMM:   3    -0.646426323402E+00   -0.12591E-01   -0.25460E-02 41710   0.578E-01
RMM:   4    -0.647089905918E+00   -0.66358E-03   -0.23811E-03 41985   0.164E-01
RMM:   5    -0.647144358333E+00   -0.54452E-04   -0.22358E-04 42197   0.489E-02
RMM:   6    -0.647149776885E+00   -0.54186E-05   -0.42355E-05 41542   0.172E-02
RMM:   7    -0.647151086434E+00   -0.13095E-05   -0.80277E-06 38223   0.646E-03
RMM:   8    -0.647151258112E+00   -0.17168E-06   -0.13042E-06 31707   0.258E-03
 Linear response to external field, progress :
  Direction:   1
       N       E                     dE             d eps       ncg     rms          rms(c)
RMM:   1    -0.898655248086E-01   -0.89866E-01    0.34626E+00110174   0.928E+00
RMM:   2    -0.607132536938E+00   -0.51727E+00   -0.20738E-01196678   0.223E+00    0.121E+00
RMM:   3    -0.620141462519E+00   -0.13009E-01   -0.39093E-02198731   0.836E-01    0.721E-01
RMM:   4    -0.655056592910E+00   -0.34915E-01   -0.11556E-02198268   0.760E-01    0.591E-02
RMM:   5    -0.655380201882E+00   -0.32361E-03   -0.82268E-04204849   0.173E-01    0.413E-02
RMM:   6    -0.656657642754E+00   -0.12774E-02   -0.14992E-04201479   0.704E-02    0.935E-03
RMM:   7    -0.657057956813E+00   -0.40031E-03   -0.15052E-05208391   0.208E-02    0.347E-03
RMM:   8    -0.657184300462E+00   -0.12634E-03   -0.11019E-05205580   0.950E-03    0.615E-04
RMM:   9    -0.657202804200E+00   -0.18504E-04   -0.80649E-06206279   0.308E-03    0.365E-04
RMM:  10    -0.657193553688E+00    0.92505E-05   -0.14089E-06161825   0.167E-03    0.105E-04
RMM:  11    -0.657194325313E+00   -0.77162E-06   -0.59302E-06 91542   0.108E-03    0.306E-05
 Linear response to external field, progress :
  Direction:   2
       N       E                     dE             d eps       ncg     rms          rms(c)
RMM:   1    -0.902814063263E-01   -0.90281E-01    0.34584E+00110468   0.919E+00
RMM:   2    -0.607756926811E+00   -0.51748E+00   -0.19919E-01197276   0.220E+00    0.121E+00
RMM:   3    -0.620147658258E+00   -0.12391E-01   -0.38474E-02199150   0.825E-01    0.722E-01
RMM:   4    -0.655106470020E+00   -0.34959E-01   -0.11558E-02198114   0.760E-01    0.599E-02
RMM:   5    -0.655400716965E+00   -0.29425E-03   -0.93942E-04204962   0.175E-01    0.419E-02
RMM:   6    -0.656592954374E+00   -0.11922E-02   -0.29170E-04200858   0.704E-02    0.936E-03
RMM:   7    -0.657016201508E+00   -0.42325E-03   -0.14259E-04208910   0.215E-02    0.421E-03
RMM:   8    -0.657177775124E+00   -0.16157E-03   -0.13659E-04205360   0.990E-03    0.609E-04
RMM:   9    -0.657217535107E+00   -0.39760E-04   -0.13773E-04210330   0.385E-03    0.412E-04
RMM:  10    -0.657209602914E+00    0.79322E-05   -0.12988E-04169964   0.193E-03    0.902E-05
RMM:  11    -0.657208412119E+00    0.11908E-05   -0.13537E-04 94460   0.115E-03    0.510E-05
RMM:  12    -0.657208067676E+00    0.34444E-06   -0.12148E-04 82610   0.110E-03    0.105E-05
RMM:  13    -0.657210947436E+00   -0.28798E-05   -0.14691E-04 73980   0.107E-03    0.514E-06
 Linear response to external field, progress :
  Direction:   3
       N       E                     dE             d eps       ncg     rms          rms(c)
RMM:   1    -0.985544740721E-01   -0.98554E-01    0.34945E+00 22480   0.916E+00
RMM:   2    -0.633835573939E+00   -0.53528E+00   -0.12110E-01 39705   0.206E+00    0.122E+00
RMM:   3    -0.642763838446E+00   -0.89283E-02   -0.25207E-02 40192   0.781E-01    0.723E-01
RMM:   4    -0.677363776244E+00   -0.34600E-01   -0.94205E-03 40340   0.698E-01    0.564E-02
RMM:   5    -0.678720065172E+00   -0.13563E-02   -0.68099E-04 40775   0.170E-01    0.399E-02
RMM:   6    -0.680104174358E+00   -0.13841E-02    0.28148E-05 40141   0.626E-02    0.831E-03
RMM:   7    -0.680414191639E+00   -0.31002E-03    0.13784E-04 41922   0.192E-02    0.370E-03
RMM:   8    -0.680400563466E+00    0.13628E-04    0.19501E-04 41398   0.667E-03    0.102E-03
RMM:   9    -0.680438234009E+00   -0.37671E-04    0.25621E-04 40977   0.289E-03    0.199E-04
RMM:  10    -0.680436762650E+00    0.14714E-05    0.25562E-04 31385   0.117E-03    0.122E-04
RMM:  11    -0.680437123861E+00   -0.36121E-06    0.25784E-04 18184   0.630E-04    0.159E-05
RMM:  12    -0.680437429106E+00   -0.30525E-06    0.25737E-04 13696   0.550E-04    0.882E-06
 Linear response DOF=           4
 Linear response progress:
  Degree of freedom:   1/  4
       N       E                     dE             d eps       ncg     rms          rms(c)
RMM:   1    -0.161894823486E+00   -0.16189E+00    0.22015E-01259545   0.785E+00
RMM:   2    -0.159648625406E+00    0.22462E-02   -0.45048E-02371537   0.160E+00    0.554E-02
RMM:   3    -0.159824632104E+00   -0.17601E-03   -0.29646E-03388621   0.392E-01    0.342E-02
RMM:   4    -0.159504023502E+00    0.32061E-03   -0.27285E-04397934   0.130E-01    0.505E-03
RMM:   5    -0.159481217101E+00    0.22806E-04   -0.29195E-05412766   0.436E-02    0.233E-03
RMM:   6    -0.159480219487E+00    0.99761E-06   -0.39877E-06410667   0.169E-02    0.601E-04
 Linear response progress:
  Degree of freedom:   2/  4
       N       E                     dE             d eps       ncg     rms          rms(c)
RMM:   1    -0.176550596467E+00   -0.17655E+00    0.24251E-01 49282   0.800E+00
RMM:   2    -0.171956111958E+00    0.45945E-02   -0.46759E-02 68745   0.162E+00    0.888E-02
RMM:   3    -0.171820313092E+00    0.13580E-03   -0.28923E-03 73768   0.416E-01    0.434E-02
RMM:   4    -0.171461130584E+00    0.35918E-03   -0.29749E-04 75139   0.139E-01    0.198E-02
RMM:   5    -0.171312935634E+00    0.14819E-03   -0.20272E-05 75144   0.583E-02    0.520E-03
RMM:   6    -0.171317682780E+00   -0.47471E-05   -0.24650E-05 74535   0.214E-02    0.316E-03
RMM:   7    -0.171326072462E+00   -0.83897E-05   -0.47154E-06 76764   0.848E-03    0.936E-04
RMM:   8    -0.171333811594E+00   -0.77391E-05   -0.31207E-05 74731   0.380E-03    0.188E-04
RMM:   9    -0.171330312566E+00    0.34990E-05    0.14411E-05 79388   0.201E-03    0.740E-05
RMM:  10    -0.171329618782E+00    0.69378E-06    0.24338E-05 76337   0.126E-03    0.270E-05
RMM:  11    -0.171330379508E+00   -0.76073E-06    0.12258E-05 80628   0.920E-04    0.942E-06
RMM:  12    -0.171329950421E+00    0.42909E-06    0.22017E-05 76690   0.760E-04    0.344E-06
RMM:  13    -0.171330891640E+00   -0.94122E-06    0.17303E-05 77506   0.696E-04    0.184E-06
RMM:  14    -0.171328019914E+00    0.28717E-05    0.49841E-05 68107   0.658E-04    0.856E-07
RMM:  15    -0.171330064801E+00   -0.20449E-05    0.30083E-05 62035   0.644E-04    0.906E-07
RMM:  16    -0.171330780487E+00   -0.71569E-06    0.22891E-05 59112   0.637E-04    0.502E-07
 Linear response progress:
  Degree of freedom:   3/  4
       N       E                     dE             d eps       ncg     rms          rms(c)
RMM:   1    -0.235712495242E+00   -0.23571E+00    0.13355E-01472691   0.332E+00
RMM:   2    -0.228769138509E+00    0.69434E-02   -0.13289E-02332141   0.992E-01    0.135E-01
RMM:   3    -0.230141449473E+00   -0.13723E-02   -0.15102E-03381677   0.289E-01    0.694E-02
RMM:   4    -0.231589629340E+00   -0.14482E-02   -0.47741E-04369259   0.132E-01    0.177E-02
RMM:   5    -0.231620501003E+00   -0.30872E-04   -0.21207E-05386076   0.352E-02    0.276E-03
RMM:   6    -0.231604051790E+00    0.16449E-04   -0.17177E-06390338   0.986E-03    0.149E-03
RMM:   7    -0.231589090085E+00    0.14962E-04   -0.23328E-07379928   0.278E-03    0.329E-04
RMM:   8    -0.231592928771E+00   -0.38387E-05   -0.86197E-08387634   0.101E-03    0.656E-05
RMM:   9    -0.231591735143E+00    0.11936E-05   -0.11954E-07395348   0.371E-04    0.429E-05
RMM:  10    -0.231592697247E+00   -0.96210E-06   -0.81732E-08402574   0.206E-04    0.416E-06
 Linear response progress:
  Degree of freedom:   4/  4
       N       E                     dE             d eps       ncg     rms          rms(c)
RMM:   1    -0.249039432221E+00   -0.24904E+00    0.17448E-01 96754   0.329E+00
RMM:   2    -0.243828454904E+00    0.52110E-02   -0.16176E-02 62659   0.109E+00    0.136E-01
RMM:   3    -0.244516535268E+00   -0.68808E-03   -0.27081E-03 67388   0.379E-01    0.648E-02
RMM:   4    -0.245488738321E+00   -0.97220E-03   -0.63187E-04 70361   0.156E-01    0.192E-02
RMM:   5    -0.245654503511E+00   -0.16577E-03   -0.66665E-05 72511   0.442E-02    0.821E-03
RMM:   6    -0.245719802203E+00   -0.65299E-04   -0.71962E-06 73187   0.151E-02    0.189E-03
RMM:   7    -0.245716024355E+00    0.37778E-05   -0.36151E-06 67471   0.573E-03    0.752E-04
RMM:   8    -0.245711688023E+00    0.43363E-05   -0.91127E-07 70325   0.239E-03    0.249E-04
RMM:   9    -0.245710961643E+00    0.72638E-06    0.98024E-07 71191   0.105E-03    0.552E-05
 Linear response finished
