PROCAR new format
# of k-points:  427         # of bands:   24         # of ions:    4

 k-point     1 :    0.00000000 0.00000000 0.03571429     weight = 0.00024802

band     1 # energy  -10.68271164 # occ.  2.00000000
 
ion      s      p      d    tot
    1  0.112  0.000  0.000  0.112
    2  0.112  0.000  0.000  0.112
    3  0.226  0.000  0.000  0.226
    4  0.226  0.000  0.000  0.226
tot    0.675  0.000  0.000  0.676
 
band     2 # energy   -9.79163486 # occ.  2.00000000
 
ion      s      p      d    tot
    1  0.022  0.013  0.207  0.242
    2  0.022  0.013  0.207  0.242
    3  0.178  0.000  0.000  0.178
    4  0.178  0.000  0.000  0.178
tot    0.399  0.027  0.415  0.841
 
band     3 # energy   -8.19840871 # occ.  2.00000000
 
ion      s      p      d    tot
    1  0.000  0.000  0.483  0.484
    2  0.000  0.000  0.483  0.484
    3  0.000  0.008  0.000  0.008
    4  0.000  0.008  0.000  0.008
tot    0.000  0.016  0.967  0.983
 
band     4 # energy   -8.18427220 # occ.  2.00000000
 
ion      s      p      d    tot
    1  0.000  0.000  0.484  0.484
    2  0.000  0.000  0.484  0.484
    3  0.000  0.008  0.000  0.008
    4  0.000  0.008  0.000  0.008
tot    0.000  0.017  0.967  0.984
 
band     5 # energy   -8.18427008 # occ.  2.00000000
 
ion      s      p      d    tot
    1  0.000  0.000  0.484  0.484
    2  0.000  0.000  0.484  0.484
    3  0.000  0.008  0.000  0.008
    4  0.000  0.008  0.000  0.008
tot    0.000  0.017  0.967  0.984
 
band     6 # energy   -8.12479609 # occ.  2.00000000
 
ion      s      p      d    tot
    1  0.000  0.000  0.486  0.486
    2  0.000  0.000  0.486  0.486
    3  0.000  0.006  0.000  0.006
    4  0.000  0.006  0.000  0.006
tot    0.000  0.013  0.972  0.986
 
band     7 # energy   -8.12479058 # occ.  2.00000000
 
ion      s      p      d    tot
    1  0.000  0.000  0.486  0.486
    2  0.000  0.000  0.486  0.486
    3  0.000  0.006  0.000  0.006
    4  0.000  0.006  0.000  0.006
tot    0.000  0.013  0.972  0.986
 
band     8 # energy   -7.93718187 # occ.  2.00000000
 
ion      s      p      d    tot
    1  0.000  0.000  0.494  0.494
    2  0.000  0.000  0.494  0.494
    3  0.000  0.000  0.000  0.000
    4  0.000  0.000  0.000  0.000
tot    0.000  0.000  0.989  0.989
 
band     9 # energy   -7.93718180 # occ.  2.00000000
 
ion      s      p      d    tot
    1  0.000  0.000  0.494  0.494
    2  0.000  0.000  0.494  0.494
    3  0.000  0.000  0.000  0.000
    4  0.000  0.000  0.000  0.000
tot    0.000  0.000  0.989  0.989
 
band    10 # energy   -7.84224879 # occ.  2.00000000
 
ion      s      p      d    tot
    1  0.000  0.000  0.497  0.497
    2  0.000  0.000  0.497  0.497
    3  0.000  0.000  0.000  0.000
    4  0.000  0.000  0.000  0.000
tot    0.000  0.000  0.994  0.994
 
band    11 # energy   -7.84224714 # occ.  2.00000000
 
ion      s      p      d    tot
    1  0.000  0.000  0.497  0.497
    2  0.000  0.000  0.497  0.497
    3  0.000  0.000  0.000  0.000
    4  0.000  0.000  0.000  0.000
tot    0.000  0.000  0.994  0.994
 
band    12 # energy   -6.62761652 # occ.  2.00000000
 
ion      s      p      d    tot
    1  0.018  0.016  0.298  0.333
    2  0.018  0.016  0.298  0.333
    3  0.112  0.000  0.000  0.112
    4  0.112  0.000  0.000  0.112
tot    0.260  0.033  0.597  0.890
 
band    13 # energy   -1.74330101 # occ.  2.00000000
 
ion      s      p      d    tot
    1  0.122  0.054  0.003  0.179
    2  0.122  0.054  0.003  0.179
    3  0.003  0.126  0.000  0.128
    4  0.003  0.126  0.000  0.128
tot    0.249  0.360  0.006  0.614
 
band    14 # energy    4.21025805 # occ.  2.00000000
 
ion      s      p      d    tot
    1  0.000  0.068  0.040  0.108
    2  0.000  0.068  0.040  0.108
    3  0.000  0.269  0.000  0.269
    4  0.000  0.269  0.000  0.269
tot    0.000  0.675  0.079  0.754
 
band    15 # energy    4.21077158 # occ.  2.00000000
 
ion      s      p      d    tot
    1  0.000  0.068  0.040  0.108
    2  0.000  0.068  0.040  0.108
    3  0.000  0.269  0.000  0.269
    4  0.000  0.269  0.000  0.269
tot    0.000  0.675  0.079  0.754
 
band    16 # energy    5.15126938 # occ.  2.00000000
 
ion      s      p      d    tot
    1  0.004  0.024  0.059  0.087
    2  0.004  0.024  0.059  0.087
    3  0.005  0.291  0.000  0.295
    4  0.005  0.291  0.000  0.295
tot    0.017  0.630  0.118  0.765
 
band    17 # energy    5.23077774 # occ.  2.00000000
 
ion      s      p      d    tot
    1  0.000  0.022  0.064  0.086
    2  0.000  0.022  0.064  0.086
    3  0.000  0.301  0.000  0.301
    4  0.000  0.301  0.000  0.301
tot    0.000  0.646  0.129  0.775
 
band    18 # energy    5.23136205 # occ.  2.00000000
 
ion      s      p      d    tot
    1  0.000  0.022  0.064  0.086
    2  0.000  0.022  0.064  0.086
    3  0.000  0.301  0.000  0.301
    4  0.000  0.301  0.000  0.301
tot    0.000  0.646  0.129  0.774
 
band    19 # energy    7.12433477 # occ.  0.00000000
 
ion      s      p      d    tot
    1  0.129  0.001  0.001  0.131
    2  0.129  0.001  0.001  0.131
    3  0.177  0.008  0.000  0.185
    4  0.177  0.008  0.000  0.185
tot    0.613  0.018  0.002  0.633
 
band    20 # energy    9.42423322 # occ.  0.00000000
 
ion      s      p      d    tot
    1  0.188  0.038  0.012  0.238
    2  0.188  0.038  0.012  0.238
    3  0.083  0.011  0.000  0.094
    4  0.083  0.011  0.000  0.094
tot    0.542  0.097  0.025  0.664
 
band    21 # energy   14.38352225 # occ.  0.00000000
 
ion      s      p      d    tot
    1  0.011  0.026  0.022  0.058
    2  0.011  0.026  0.022  0.058
    3  0.001  0.234  0.000  0.236
    4  0.001  0.234  0.000  0.236
tot    0.024  0.520  0.045  0.589
 
band    22 # energy   15.07395356 # occ.  0.00000000
 
ion      s      p      d    tot
    1  0.000  0.336  0.019  0.354
    2  0.000  0.336  0.019  0.354
    3  0.000  0.000  0.000  0.000
    4  0.000  0.000  0.000  0.000
tot    0.000  0.671  0.037  0.709
 
band    23 # energy   15.07397029 # occ.  0.00000000
 
ion      s      p      d    tot
    1  0.000  0.336  0.019  0.354
    2  0.000  0.336  0.019  0.354
    3  0.000  0.000  0.000  0.000
    4  0.000  0.000  0.000  0.000
tot    0.000  0.671  0.037  0.709
 
band    24 # energy   15.86417979 # occ.  0.00000000
 
ion      s      p      d    tot
    1  0.001  0.358  0.002  0.362
    2  0.001  0.358  0.002  0.362
    3  0.000  0.004  0.000  0.005
    4  0.000  0.004  0.000  0.005
tot    0.004  0.724  0.005  0.732
 

 k-point     2 :    0.04166667 0.00000000 0.03571429     weight = 0.00148810

band     1 # energy  -10.66559377 # occ.  2.00000000
 
ion      s      p      d    tot
    1  0.111  0.000  0.001  0.113
    2  0.111  0.000  0.001  0.113
    3  0.226  0.000  0.000  0.226
    4  0.226  0.000  0.000  0.226
tot    0.674  0.001  0.003  0.678
 
band     2 # energy   -9.78704871 # occ.  2.00000000
 
ion      s      p      d    tot
    1  0.021  0.014  0.208  0.243
    2  0.021  0.014  0.208  0.243
    3  0.178  0.000  0.000  0.178
    4  0.178  0.000  0.000  0.178
tot    0.398  0.027  0.417  0.842
 
band     3 # energy   -8.19766596 # occ.  2.00000000
 
ion      s      p      d    tot
    1  0.000  0.000  0.485  0.485
    2  0.000  0.000  0.482  0.482
    3  0.000  0.008  0.000  0.008
    4  0.000  0.008  0.000  0.008
tot    0.000  0.016  0.967  0.983
 
band     4 # energy   -8.18160600 # occ.  2.00000000
 
ion      s      p      d    tot
    1  0.000  0.000  0.482  0.482
    2  0.000  0.000  0.485  0.485
    3  0.000  0.008  0.000  0.008
    4  0.000  0.008  0.000  0.008
tot    0.000  0.017  0.967  0.984
 
band     5 # energy   -8.17781783 # occ.  2.00000000
 
ion      s      p      d    tot
    1  0.000  0.000  0.481  0.482
    2  0.000  0.000  0.483  0.484
    3  0.000  0.008  0.000  0.009
    4  0.000  0.008  0.000  0.009
tot    0.001  0.017  0.965  0.983
 
band     6 # energy   -8.12304320 # occ.  2.00000000
 
ion      s      p      d    tot
    1  0.000  0.000  0.485  0.485
    2  0.000  0.000  0.487  0.488
    3  0.000  0.006  0.000  0.006
    4  0.000  0.006  0.000  0.006
tot    0.000  0.013  0.972  0.986
 
band     7 # energy   -8.12136787 # occ.  2.00000000
 
ion      s      p      d    tot
    1  0.000  0.000  0.489  0.489
    2  0.000  0.000  0.484  0.484
    3  0.000  0.006  0.000  0.006
    4  0.000  0.006  0.000  0.006
tot    0.000  0.013  0.972  0.986
 
band     8 # energy   -7.93853312 # occ.  2.00000000
 
ion      s      p      d    tot
    1  0.000  0.000  0.497  0.497
    2  0.000  0.000  0.492  0.492
    3  0.000  0.000  0.000  0.000
    4  0.000  0.000  0.000  0.000
tot    0.000  0.000  0.989  0.989
 
band     9 # energy   -7.93740686 # occ.  2.00000000
 
ion      s      p      d    tot
    1  0.000  0.000  0.493  0.493
    2  0.000  0.000  0.496  0.496
    3  0.000  0.000  0.000  0.000
    4  0.000  0.000  0.000  0.000
tot    0.000  0.000  0.989  0.989
 
band    10 # energy   -7.84531692 # occ.  2.00000000
 
ion      s      p      d    tot
    1  0.000  0.000  0.495  0.495
    2  0.000  0.000  0.498  0.498
    3  0.000  0.000  0.000  0.000
    4  0.000  0.000  0.000  0.000
tot    0.000  0.000  0.993  0.993
 
band    11 # energy   -7.84186224 # occ.  2.00000000
 
ion      s      p      d    tot
    1  0.000  0.000  0.498  0.498
    2  0.000  0.000  0.496  0.496
    3  0.000  0.000  0.000  0.000
    4  0.000  0.000  0.000  0.000
tot    0.000  0.000  0.994  0.994
 
band    12 # energy   -6.61539690 # occ.  2.00000000
 
ion      s      p      d    tot
    1  0.018  0.016  0.298  0.332
    2  0.018  0.016  0.298  0.332
    3  0.113  0.000  0.000  0.113
    4  0.113  0.000  0.000  0.113
tot    0.261  0.033  0.595  0.890
 
band    13 # energy   -1.71877805 # occ.  2.00000000
 
ion      s      p      d    tot
    1  0.122  0.054  0.003  0.179
    2  0.122  0.054  0.003  0.179
    3  0.003  0.126  0.000  0.129
    4  0.003  0.126  0.000  0.129
tot    0.249  0.360  0.006  0.615
 
band    14 # energy    4.07540875 # occ.  2.00000000
 
ion      s      p      d    tot
    1  0.005  0.068  0.039  0.112
    2  0.005  0.068  0.039  0.112
    3  0.002  0.260  0.000  0.262
    4  0.002  0.260  0.000  0.262
tot    0.013  0.657  0.078  0.748
 
band    15 # energy    4.17329168 # occ.  2.00000000
 
ion      s      p      d    tot
    1  0.000  0.069  0.039  0.108
    2  0.000  0.069  0.039  0.108
    3  0.000  0.268  0.000  0.268
    4  0.000  0.268  0.000  0.268
tot    0.000  0.674  0.078  0.752
 
band    16 # energy    4.99908065 # occ.  2.00000000
 
ion      s      p      d    tot
    1  0.015  0.021  0.059  0.094
    2  0.015  0.020  0.060  0.095
    3  0.018  0.270  0.000  0.288
    4  0.018  0.265  0.000  0.284
tot    0.066  0.576  0.119  0.761
 
band    17 # energy    5.18214142 # occ.  2.00000000
 
ion      s      p      d    tot
    1  0.000  0.025  0.061  0.086
    2  0.000  0.026  0.060  0.085
    3  0.000  0.296  0.000  0.296
    4  0.000  0.300  0.000  0.300
tot    0.000  0.647  0.121  0.768
 
band    18 # energy    5.21592363 # occ.  2.00000000
 
ion      s      p      d    tot
    1  0.000  0.023  0.064  0.087
    2  0.000  0.023  0.064  0.087
    3  0.000  0.300  0.000  0.300
    4  0.000  0.301  0.000  0.301
tot    0.000  0.647  0.128  0.774
 
band    19 # energy    7.29895018 # occ.  0.00000000
 
ion      s      p      d    tot
    1  0.119  0.004  0.003  0.126
    2  0.119  0.004  0.003  0.126
    3  0.162  0.032  0.000  0.195
    4  0.163  0.032  0.000  0.195
tot    0.562  0.072  0.007  0.641
 
band    20 # energy    9.54449571 # occ.  0.00000000
 
ion      s      p      d    tot
    1  0.183  0.038  0.012  0.234
    2  0.183  0.038  0.012  0.234
    3  0.081  0.019  0.000  0.100
    4  0.081  0.019  0.000  0.100
tot    0.528  0.115  0.025  0.668
 
band    21 # energy   14.34666033 # occ.  0.00000000
 
ion      s      p      d    tot
    1  0.010  0.029  0.024  0.062
    2  0.010  0.027  0.024  0.061
    3  0.001  0.230  0.000  0.231
    4  0.001  0.230  0.000  0.232
tot    0.022  0.516  0.048  0.586
 
band    22 # energy   14.92125362 # occ.  0.00000000
 
ion      s      p      d    tot
    1  0.009  0.314  0.020  0.342
    2  0.009  0.315  0.019  0.343
    3  0.000  0.002  0.000  0.003
    4  0.000  0.003  0.000  0.003
tot    0.018  0.634  0.039  0.691
 
band    23 # energy   15.12136830 # occ.  0.00000000
 
ion      s      p      d    tot
    1  0.000  0.336  0.018  0.354
    2  0.000  0.336  0.018  0.354
    3  0.000  0.002  0.000  0.002
    4  0.000  0.001  0.000  0.001
tot    0.000  0.674  0.037  0.711
 
band    24 # energy   15.89632044 # occ.  0.00000000
 
ion      s      p      d    tot
    1  0.001  0.359  0.003  0.363
    2  0.001  0.358  0.003  0.363
    3  0.001  0.005  0.000  0.006
    4  0.001  0.005  0.000  0.005
tot    0.003  0.727  0.007  0.737
 

 k-point     3 :    0.08333333 0.00000000 0.03571429     weight = 0.00148810

band     1 # energy  -10.61548527 # occ.  2.00000000
 
ion      s      p      d    tot
    1  0.108  0.001  0.005  0.115
    2  0.108  0.001  0.005  0.115
    3  0.226  0.000  0.000  0.226
    4  0.226  0.000  0.000  0.226
tot    0.668  0.003  0.010  0.682
 
band     2 # energy   -9.77414271 # occ.  2.00000000
 
ion      s      p      d    tot
    1  0.020  0.014  0.212  0.246
    2  0.020  0.014  0.212  0.246
    3  0.177  0.000  0.000  0.177
    4  0.177  0.000  0.000  0.177
tot    0.392  0.028  0.424  0.844
 
band     3 # energy   -8.19277526 # occ.  2.00000000
 
ion      s      p      d    tot
    1  0.000  0.000  0.490  0.490
    2  0.000  0.000  0.477  0.477
    3  0.000  0.008  0.000  0.008
    4  0.000  0.008  0.000  0.008
tot    0.001  0.016  0.966  0.983
 
band     4 # energy   -8.17430412 # occ.  2.00000000
 
ion      s      p      d    tot
    1  0.000  0.000  0.481  0.481
    2  0.000  0.000  0.487  0.487
    3  0.000  0.008  0.000  0.008
    4  0.000  0.008  0.000  0.008
tot    0.000  0.017  0.968  0.984
 
band     5 # energy   -8.16101407 # occ.  2.00000000
 
ion      s      p      d    tot
    1  0.002  0.000  0.470  0.472
    2  0.002  0.000  0.488  0.489
    3  0.001  0.009  0.000  0.009
    4  0.001  0.008  0.000  0.009
tot    0.005  0.017  0.958  0.980
 
band     6 # energy   -8.11736101 # occ.  2.00000000
 
ion      s      p      d    tot
    1  0.000  0.000  0.486  0.486
    2  0.000  0.000  0.486  0.487
    3  0.000  0.006  0.000  0.006
    4  0.000  0.006  0.000  0.006
tot    0.000  0.013  0.972  0.985
 
band     7 # energy   -8.11144482 # occ.  2.00000000
 
ion      s      p      d    tot
    1  0.000  0.000  0.491  0.492
    2  0.000  0.000  0.482  0.482
    3  0.000  0.006  0.000  0.006
    4  0.000  0.006  0.000  0.006
tot    0.000  0.013  0.973  0.986
 
band     8 # energy   -7.94261713 # occ.  2.00000000
 
ion      s      p      d    tot
    1  0.000  0.000  0.499  0.499
    2  0.000  0.000  0.489  0.489
    3  0.000  0.000  0.000  0.000
    4  0.000  0.000  0.000  0.000
tot    0.000  0.000  0.988  0.988
 
band     9 # energy   -7.93785918 # occ.  2.00000000
 
ion      s      p      d    tot
    1  0.000  0.000  0.491  0.491
    2  0.000  0.000  0.498  0.498
    3  0.000  0.000  0.000  0.000
    4  0.000  0.000  0.000  0.000
tot    0.000  0.000  0.989  0.989
 
band    10 # energy   -7.85379353 # occ.  2.00000000
 
ion      s      p      d    tot
    1  0.000  0.000  0.493  0.493
    2  0.000  0.000  0.499  0.499
    3  0.000  0.000  0.000  0.000
    4  0.000  0.000  0.000  0.000
tot    0.000  0.000  0.992  0.992
 
band    11 # energy   -7.84074438 # occ.  2.00000000
 
ion      s      p      d    tot
    1  0.000  0.000  0.499  0.499
    2  0.000  0.000  0.495  0.495
    3  0.000  0.000  0.000  0.000
    4  0.000  0.000  0.000  0.000
tot    0.000  0.000  0.994  0.994
 
band    12 # energy   -6.57960901 # occ.  2.00000000
 
ion      s      p      d    tot
    1  0.018  0.017  0.295  0.329
    2  0.018  0.017  0.295  0.329
    3  0.115  0.001  0.000  0.116
    4  0.115  0.000  0.000  0.116
tot    0.266  0.034  0.590  0.889
 
band    13 # energy   -1.64590915 # occ.  2.00000000
 
ion      s      p      d    tot
    1  0.123  0.054  0.003  0.180
    2  0.123  0.054  0.003  0.180
    3  0.003  0.127  0.000  0.129
    4  0.003  0.127  0.000  0.129
tot    0.251  0.361  0.006  0.618
 
band    14 # energy    3.69859733 # occ.  2.00000000
 
ion      s      p      d    tot
    1  0.017  0.069  0.037  0.123
    2  0.016  0.068  0.037  0.121
    3  0.006  0.238  0.000  0.244
    4  0.006  0.241  0.000  0.247
tot    0.045  0.617  0.074  0.735
 
band    15 # energy    4.06582383 # occ.  2.00000000
 
ion      s      p      d    tot
    1  0.000  0.072  0.038  0.110
    2  0.000  0.072  0.037  0.110
    3  0.000  0.264  0.000  0.264
    4  0.000  0.264  0.000  0.264
tot    0.000  0.673  0.075  0.748
 
band    16 # energy    4.57274665 # occ.  2.00000000
 
ion      s      p      d    tot
    1  0.031  0.019  0.055  0.105
    2  0.032  0.019  0.057  0.108
    3  0.037  0.237  0.000  0.274
    4  0.037  0.229  0.000  0.265
tot    0.137  0.504  0.112  0.753
 
band    17 # energy    5.12640294 # occ.  2.00000000
 
ion      s      p      d    tot
    1  0.000  0.028  0.059  0.088
    2  0.000  0.029  0.057  0.086
    3  0.000  0.293  0.000  0.293
    4  0.000  0.299  0.000  0.299
tot    0.000  0.649  0.117  0.765
 
band    18 # energy    5.17054724 # occ.  2.00000000
 
ion      s      p      d    tot
    1  0.000  0.026  0.062  0.088
    2  0.000  0.025  0.062  0.088
    3  0.000  0.299  0.000  0.299
    4  0.000  0.299  0.000  0.299
tot    0.000  0.649  0.124  0.773
 
band    19 # energy    7.69358364 # occ.  0.00000000
 
ion      s      p      d    tot
    1  0.103  0.010  0.005  0.119
    2  0.103  0.010  0.006  0.118
    3  0.141  0.066  0.000  0.208
    4  0.141  0.066  0.000  0.207
tot    0.489  0.152  0.011  0.652
 
band    20 # energy    9.86301905 # occ.  0.00000000
 
ion      s      p      d    tot
    1  0.174  0.039  0.012  0.226
    2  0.174  0.040  0.013  0.227
    3  0.074  0.039  0.000  0.112
    4  0.073  0.038  0.000  0.112
tot    0.495  0.156  0.025  0.677
 
band    21 # energy   14.19710040 # occ.  0.00000000
 
ion      s      p      d    tot
    1  0.013  0.069  0.026  0.107
    2  0.008  0.058  0.027  0.092
    3  0.001  0.191  0.000  0.192
    4  0.001  0.194  0.000  0.195
tot    0.022  0.511  0.053  0.586
 
band    22 # energy   14.58574317 # occ.  0.00000000
 
ion      s      p      d    tot
    1  0.023  0.231  0.025  0.279
    2  0.028  0.246  0.023  0.297
    3  0.000  0.036  0.000  0.037
    4  0.001  0.035  0.000  0.036
tot    0.051  0.549  0.048  0.649
 
band    23 # energy   15.25479187 # occ.  0.00000000
 
ion      s      p      d    tot
    1  0.000  0.336  0.017  0.353
    2  0.000  0.337  0.017  0.355
    3  0.000  0.006  0.000  0.006
    4  0.000  0.004  0.000  0.004
tot    0.000  0.683  0.035  0.718
 
band    24 # energy   15.95646088 # occ.  0.00000000
 
ion      s      p      d    tot
    1  0.000  0.354  0.008  0.361
    2  0.004  0.352  0.006  0.362
    3  0.001  0.010  0.000  0.011
    4  0.001  0.007  0.000  0.007
tot    0.005  0.723  0.014  0.742
 

 k-point     4 :    0.12500000 0.00000000 0.03571429     weight = 0.00148810

band     1 # energy  -10.53591634 # occ.  2.00000000
 
ion      s      p      d    tot
    1  0.103  0.003  0.012  0.118
    2  0.103  0.003  0.012  0.118
    3  0.226  0.000  0.000  0.226
    4  0.226  0.000  0.000  0.226
tot    0.658  0.007  0.025  0.689
 
band     2 # energy   -9.75479698 # occ.  2.00000000
 
ion      s      p      d    tot
    1  0.017  0.015  0.218  0.249
    2  0.017  0.015  0.218  0.249
    3  0.175  0.000  0.000  0.175
    4  0.175  0.000  0.000  0.175
tot    0.384  0.029  0.435  0.848
 
band     3 # energy   -8.18267426 # occ.  2.00000000
 
ion      s      p      d    tot
    1  0.000  0.000  0.497  0.498
    2  0.000  0.000  0.469  0.469
    3  0.000  0.008  0.000  0.008
    4  0.000  0.008  0.000  0.008
tot    0.001  0.016  0.966  0.983
 
band     4 # energy   -8.16331695 # occ.  2.00000000
 
ion      s      p      d    tot
    1  0.000  0.000  0.480  0.480
    2  0.000  0.000  0.488  0.488
    3  0.000  0.008  0.000  0.008
    4  0.000  0.008  0.000  0.008
tot    0.000  0.016  0.968  0.985
 
band     5 # energy   -8.13477293 # occ.  2.00000000
 
ion      s      p      d    tot
    1  0.004  0.000  0.438  0.442
    2  0.004  0.000  0.509  0.513
    3  0.002  0.009  0.000  0.011
    4  0.002  0.008  0.000  0.010
tot    0.011  0.017  0.947  0.976
 
band     6 # energy   -8.10532349 # occ.  2.00000000
 
ion      s      p      d    tot
    1  0.001  0.000  0.501  0.502
    2  0.001  0.000  0.468  0.469
    3  0.000  0.006  0.000  0.006
    4  0.000  0.006  0.000  0.007
tot    0.002  0.013  0.969  0.984
 
band     7 # energy   -8.09569158 # occ.  2.00000000
 
ion      s      p      d    tot
    1  0.000  0.000  0.494  0.495
    2  0.000  0.000  0.480  0.480
    3  0.000  0.006  0.000  0.006
    4  0.000  0.006  0.000  0.006
tot    0.000  0.013  0.974  0.987
 
band     8 # energy   -7.94926127 # occ.  2.00000000
 
ion      s      p      d    tot
    1  0.000  0.000  0.506  0.506
    2  0.000  0.000  0.482  0.482
    3  0.000  0.000  0.000  0.000
    4  0.000  0.000  0.000  0.000
tot    0.000  0.000  0.988  0.988
 
band     9 # energy   -7.93777181 # occ.  2.00000000
 
ion      s      p      d    tot
    1  0.000  0.000  0.488  0.488
    2  0.000  0.000  0.500  0.500
    3  0.000  0.000  0.000  0.000
    4  0.000  0.000  0.000  0.000
tot    0.000  0.000  0.989  0.989
 
band    10 # energy   -7.86575026 # occ.  2.00000000
 
ion      s      p      d    tot
    1  0.000  0.000  0.488  0.488
    2  0.000  0.000  0.502  0.502
    3  0.000  0.000  0.000  0.000
    4  0.000  0.000  0.000  0.000
tot    0.000  0.001  0.990  0.991
 
band    11 # energy   -7.83903015 # occ.  2.00000000
 
ion      s      p      d    tot
    1  0.000  0.000  0.500  0.500
    2  0.000  0.000  0.494  0.494
    3  0.000  0.000  0.000  0.000
    4  0.000  0.000  0.000  0.000
tot    0.000  0.000  0.994  0.994
 
band    12 # energy   -6.52195401 # occ.  2.00000000
 
ion      s      p      d    tot
    1  0.018  0.017  0.290  0.325
    2  0.018  0.017  0.290  0.325
    3  0.119  0.001  0.000  0.120
    4  0.119  0.001  0.000  0.120
tot    0.273  0.036  0.580  0.889
 
band    13 # energy   -1.52682121 # occ.  2.00000000
 
ion      s      p      d    tot
    1  0.124  0.053  0.003  0.181
    2  0.124  0.053  0.003  0.181
    3  0.003  0.128  0.000  0.131
    4  0.003  0.128  0.000  0.131
tot    0.254  0.363  0.007  0.624
 
band    14 # energy    3.15835048 # occ.  2.00000000
 
ion      s      p      d    tot
    1  0.029  0.070  0.035  0.134
    2  0.027  0.069  0.034  0.131
    3  0.010  0.215  0.000  0.225
    4  0.011  0.219  0.000  0.229
tot    0.077  0.572  0.069  0.718
 
band    15 # energy    3.90435440 # occ.  2.00000000
 
ion      s      p      d    tot
    1  0.000  0.077  0.035  0.112
    2  0.000  0.077  0.035  0.112
    3  0.000  0.259  0.000  0.259
    4  0.000  0.258  0.000  0.258
tot    0.000  0.671  0.070  0.741
 
band    16 # energy    4.04704201 # occ.  2.00000000
 
ion      s      p      d    tot
    1  0.043  0.020  0.052  0.116
    2  0.046  0.021  0.055  0.121
    3  0.047  0.213  0.000  0.261
    4  0.047  0.203  0.000  0.250
tot    0.183  0.458  0.107  0.748
 
band    17 # energy    5.03849006 # occ.  2.00000000
 
ion      s      p      d    tot
    1  0.000  0.032  0.057  0.089
    2  0.000  0.033  0.055  0.088
    3  0.000  0.289  0.000  0.289
    4  0.000  0.296  0.000  0.296
tot    0.000  0.650  0.112  0.763
 
band    18 # energy    5.09377208 # occ.  2.00000000
 
ion      s      p      d    tot
    1  0.000  0.030  0.059  0.090
    2  0.000  0.030  0.060  0.090
    3  0.000  0.296  0.000  0.296
    4  0.000  0.297  0.000  0.297
tot    0.000  0.653  0.119  0.772
 
band    19 # energy    8.15707350 # occ.  0.00000000
 
ion      s      p      d    tot
    1  0.093  0.017  0.005  0.115
    2  0.092  0.016  0.005  0.113
    3  0.126  0.088  0.000  0.214
    4  0.126  0.087  0.000  0.213
tot    0.437  0.209  0.010  0.656
 
band    20 # energy   10.28506688 # occ.  0.00000000
 
ion      s      p      d    tot
    1  0.166  0.042  0.012  0.220
    2  0.166  0.043  0.013  0.221
    3  0.065  0.059  0.000  0.123
    4  0.064  0.058  0.000  0.122
tot    0.460  0.201  0.025  0.686
 
band    21 # energy   13.82461849 # occ.  0.00000000
 
ion      s      p      d    tot
    1  0.032  0.147  0.023  0.201
    2  0.021  0.127  0.025  0.173
    3  0.001  0.104  0.000  0.105
    4  0.000  0.113  0.000  0.113
tot    0.054  0.491  0.048  0.593
 
band    22 # energy   14.32169748 # occ.  0.00000000
 
ion      s      p      d    tot
    1  0.020  0.110  0.039  0.169
    2  0.031  0.135  0.037  0.204
    3  0.001  0.116  0.000  0.116
    4  0.001  0.109  0.000  0.111
tot    0.052  0.470  0.077  0.599
 
band    23 # energy   15.44839051 # occ.  0.00000000
 
ion      s      p      d    tot
    1  0.000  0.337  0.016  0.353
    2  0.000  0.338  0.016  0.355
    3  0.000  0.011  0.000  0.011
    4  0.000  0.008  0.000  0.008
tot    0.000  0.695  0.032  0.727
 
band    24 # energy   15.86210274 # occ.  0.00000000
 
ion      s      p      d    tot
    1  0.008  0.294  0.017  0.319
    2  0.017  0.291  0.015  0.323
    3  0.004  0.032  0.000  0.037
    4  0.004  0.025  0.000  0.029
tot    0.033  0.643  0.032  0.708
 

 k-point     5 :    0.16666667 0.00000000 0.03571429     weight = 0.00148810

band     1 # energy  -10.43281518 # occ.  2.00000000
 
ion      s      p      d    tot
    1  0.095  0.005  0.024  0.124
    2  0.095  0.005  0.023  0.124
    3  0.226  0.000  0.000  0.226
    4  0.226  0.000  0.000  0.226
tot    0.642  0.011  0.047  0.700
 
band     2 # energy   -9.73152957 # occ.  2.00000000
 
ion      s      p      d    tot
    1  0.014  0.015  0.225  0.254
    2  0.014  0.015  0.225  0.254
    3  0.172  0.000  0.000  0.172
    4  0.172  0.000  0.000  0.172
tot    0.373  0.030  0.450  0.853
 
band     3 # energy   -8.16957309 # occ.  2.00000000
 
ion      s      p      d    tot
    1  0.000  0.000  0.504  0.505
    2  0.000  0.000  0.462  0.463
    3  0.000  0.007  0.000  0.008
    4  0.000  0.008  0.000  0.008
tot    0.001  0.016  0.967  0.984
 
band     4 # energy   -8.15039459 # occ.  2.00000000
 
ion      s      p      d    tot
    1  0.000  0.000  0.480  0.480
    2  0.000  0.000  0.489  0.489
    3  0.000  0.008  0.000  0.008
    4  0.000  0.008  0.000  0.008
tot    0.000  0.016  0.969  0.985
 
band     5 # energy   -8.10564781 # occ.  2.00000000
 
ion      s      p      d    tot
    1  0.003  0.000  0.403  0.406
    2  0.003  0.000  0.552  0.555
    3  0.001  0.008  0.000  0.010
    4  0.001  0.006  0.000  0.007
tot    0.009  0.015  0.954  0.978
 
band     6 # energy   -8.07499113 # occ.  2.00000000
 
ion      s      p      d    tot
    1  0.000  0.000  0.497  0.498
    2  0.000  0.000  0.478  0.478
    3  0.000  0.006  0.000  0.006
    4  0.000  0.006  0.000  0.006
tot    0.000  0.012  0.975  0.988
 
band     7 # energy   -8.07492030 # occ.  2.00000000
 
ion      s      p      d    tot
    1  0.005  0.000  0.514  0.520
    2  0.005  0.000  0.426  0.431
    3  0.004  0.006  0.000  0.010
    4  0.004  0.008  0.000  0.012
tot    0.018  0.015  0.940  0.973
 
band     8 # energy   -7.95768528 # occ.  2.00000000
 
ion      s      p      d    tot
    1  0.000  0.000  0.518  0.519
    2  0.000  0.000  0.468  0.468
    3  0.000  0.000  0.000  0.000
    4  0.000  0.000  0.000  0.000
tot    0.000  0.000  0.987  0.987
 
band     9 # energy   -7.93602593 # occ.  2.00000000
 
ion      s      p      d    tot
    1  0.000  0.000  0.485  0.485
    2  0.000  0.000  0.503  0.503
    3  0.000  0.000  0.000  0.000
    4  0.000  0.000  0.000  0.000
tot    0.000  0.000  0.989  0.989
 
band    10 # energy   -7.87795255 # occ.  2.00000000
 
ion      s      p      d    tot
    1  0.000  0.000  0.478  0.479
    2  0.000  0.000  0.509  0.510
    3  0.001  0.000  0.000  0.001
    4  0.000  0.000  0.000  0.000
tot    0.001  0.001  0.987  0.989
 
band    11 # energy   -7.83692531 # occ.  2.00000000
 
ion      s      p      d    tot
    1  0.000  0.000  0.501  0.501
    2  0.000  0.000  0.493  0.493
    3  0.000  0.000  0.000  0.000
    4  0.000  0.000  0.000  0.000
tot    0.000  0.000  0.994  0.994
 
band    12 # energy   -6.44530152 # occ.  2.00000000
 
ion      s      p      d    tot
    1  0.017  0.018  0.284  0.318
    2  0.017  0.018  0.284  0.319
    3  0.124  0.001  0.000  0.125
    4  0.124  0.001  0.000  0.125
tot    0.281  0.038  0.568  0.887
 
band    13 # energy   -1.36586479 # occ.  2.00000000
 
ion      s      p      d    tot
    1  0.128  0.051  0.004  0.183
    2  0.127  0.052  0.004  0.183
    3  0.003  0.130  0.000  0.133
    4  0.003  0.130  0.000  0.133
tot    0.261  0.363  0.007  0.632
 
band    14 # energy    2.53723418 # occ.  2.00000000
 
ion      s      p      d    tot
    1  0.039  0.072  0.032  0.143
    2  0.036  0.071  0.031  0.138
    3  0.013  0.193  0.000  0.206
    4  0.014  0.199  0.000  0.212
tot    0.102  0.534  0.063  0.699
 
band    15 # energy    3.48543233 # occ.  2.00000000
 
ion      s      p      d    tot
    1  0.053  0.023  0.050  0.126
    2  0.057  0.023  0.053  0.133
    3  0.051  0.197  0.000  0.249
    4  0.051  0.186  0.000  0.237
tot    0.213  0.430  0.103  0.746
 
band    16 # energy    3.70517050 # occ.  2.00000000
 
ion      s      p      d    tot
    1  0.000  0.082  0.032  0.114
    2  0.000  0.082  0.032  0.114
    3  0.000  0.253  0.000  0.253
    4  0.000  0.253  0.000  0.253
tot    0.000  0.669  0.064  0.733
 
band    17 # energy    4.91077677 # occ.  2.00000000
 
ion      s      p      d    tot
    1  0.001  0.037  0.054  0.092
    2  0.001  0.039  0.052  0.091
    3  0.000  0.285  0.000  0.285
    4  0.000  0.292  0.000  0.292
tot    0.001  0.653  0.106  0.760
 
band    18 # energy    4.99058376 # occ.  2.00000000
 
ion      s      p      d    tot
    1  0.000  0.036  0.056  0.092
    2  0.000  0.035  0.057  0.092
    3  0.000  0.293  0.000  0.293
    4  0.000  0.293  0.000  0.293