   4   4   1   0
  0.1131043E+02  0.3180000E-09  0.3180000E-09  0.5166000E-09  0.5000000E-15
  1.000000000000000E-004
  CAR 
 unknown system                          
     17.36092521    -12.02341259  301      5.70666831      1.00000000
    -12.023  0.0000E+00  0.0000E+00
    -11.925  0.0000E+00  0.0000E+00
    -11.828  0.0000E+00  0.0000E+00
    -11.730  0.0000E+00  0.0000E+00
    -11.632  0.0000E+00  0.0000E+00
    -11.534  0.0000E+00  0.0000E+00
    -11.436  0.0000E+00  0.0000E+00
    -11.338  0.0000E+00  0.0000E+00
    -11.240  0.2980E-17  0.2919E-18
    -11.142  0.6889E-13  0.6748E-14
    -11.044  0.2501E-09  0.2450E-10
    -10.946  0.1518E-06  0.1489E-07
    -10.848  0.1789E-04  0.1767E-05
    -10.750  0.5139E-03  0.5210E-04
    -10.652  0.4293E-02  0.4726E-03
    -10.554  0.1237E-01  0.1684E-02
    -10.456  0.2136E-01  0.3776E-02
    -10.358  0.2988E-01  0.6703E-02
    -10.260  0.3902E-01  0.1053E-01
    -10.162  0.5329E-01  0.1575E-01
    -10.064  0.7060E-01  0.2266E-01
     -9.967  0.1043E+00  0.3288E-01
     -9.869  0.1756E+00  0.5008E-01
     -9.771  0.3394E+00  0.8332E-01
     -9.673  0.5636E+00  0.1385E+00
     -9.575  0.4902E+00  0.1865E+00
     -9.477  0.1298E+00  0.1992E+00
     -9.379  0.7625E-02  0.2000E+00
     -9.281  0.8397E-04  0.2000E+00
     -9.183  0.1573E-06  0.2000E+00
     -9.085  0.4748E-10  0.2000E+00
     -8.987  0.2243E-14  0.2000E+00
     -8.889  0.0000E+00  0.2000E+00
     -8.791  0.0000E+00  0.2000E+00
     -8.693  0.2751E-13  0.2000E+00
     -8.595  0.3370E-09  0.2000E+00
     -8.497  0.7092E-06  0.2000E+00
     -8.399  0.2711E-03  0.2000E+00
     -8.301  0.2029E-01  0.2020E+00
     -8.203  0.3283E+00  0.2342E+00
     -8.106  0.1348E+01  0.3662E+00
     -8.008  0.2044E+01  0.5664E+00
     -7.910  0.2252E+01  0.7870E+00
     -7.812  0.1768E+01  0.9601E+00
     -7.714  0.5860E+00  0.1018E+01
     -7.616  0.1093E+00  0.1028E+01
     -7.518  0.6816E-01  0.1035E+01
     -7.420  0.5371E-01  0.1040E+01
     -7.322  0.5975E-01  0.1046E+01
     -7.224  0.8039E-01  0.1054E+01
     -7.126  0.7263E-01  0.1061E+01
     -7.028  0.6721E-01  0.1068E+01
     -6.930  0.8014E-01  0.1075E+01
     -6.832  0.9566E-01  0.1085E+01
     -6.734  0.1098E+00  0.1096E+01
     -6.636  0.1227E+00  0.1108E+01
     -6.538  0.1258E+00  0.1120E+01
     -6.440  0.1297E+00  0.1133E+01
     -6.342  0.1411E+00  0.1146E+01
     -6.244  0.1376E+00  0.1160E+01
     -6.147  0.1538E+00  0.1175E+01
     -6.049  0.1477E+00  0.1189E+01
     -5.951  0.8376E-01  0.1198E+01
     -5.853  0.2197E-01  0.1200E+01
     -5.755  0.1994E-02  0.1200E+01
     -5.657  0.5151E-04  0.1200E+01
     -5.559  0.3104E-06  0.1200E+01
     -5.461  0.3545E-09  0.1200E+01
     -5.363  0.6724E-13  0.1200E+01
     -5.265  0.2024E-17  0.1200E+01
     -5.167  0.0000E+00  0.1200E+01
     -5.069  0.0000E+00  0.1200E+01
     -4.971  0.0000E+00  0.1200E+01
     -4.873  0.0000E+00  0.1200E+01
     -4.775  0.0000E+00  0.1200E+01
     -4.677  0.0000E+00  0.1200E+01
     -4.579  0.0000E+00  0.1200E+01
     -4.481  0.0000E+00  0.1200E+01
     -4.383  0.0000E+00  0.1200E+01
     -4.286  0.0000E+00  0.1200E+01
     -4.188  0.0000E+00  0.1200E+01
     -4.090  0.0000E+00  0.1200E+01
     -3.992  0.0000E+00  0.1200E+01
     -3.894  0.0000E+00  0.1200E+01
     -3.796  0.0000E+00  0.1200E+01
     -3.698  0.0000E+00  0.1200E+01
     -3.600  0.0000E+00  0.1200E+01
     -3.502  0.0000E+00  0.1200E+01
     -3.404  0.0000E+00  0.1200E+01
     -3.306  0.0000E+00  0.1200E+01
     -3.208  0.0000E+00  0.1200E+01
     -3.110  0.0000E+00  0.1200E+01
     -3.012  0.0000E+00  0.1200E+01
     -2.914  0.0000E+00  0.1200E+01
     -2.816  0.0000E+00  0.1200E+01
     -2.718  0.0000E+00  0.1200E+01
     -2.620  0.0000E+00  0.1200E+01
     -2.522  0.0000E+00  0.1200E+01
     -2.425  0.0000E+00  0.1200E+01
     -2.327  0.1462E-17  0.1200E+01
     -2.229  0.3817E-13  0.1200E+01
     -2.131  0.1513E-09  0.1200E+01
     -2.033  0.9421E-07  0.1200E+01
     -1.935  0.9855E-05  0.1200E+01
     -1.837  0.2138E-03  0.1200E+01
     -1.739  0.1447E-02  0.1200E+01
     -1.641  0.3421E-02  0.1200E+01
     -1.543  0.4161E-02  0.1201E+01
     -1.445  0.1245E-01  0.1202E+01
     -1.347  0.3212E-01  0.1205E+01
     -1.249  0.5383E-01  0.1211E+01
     -1.151  0.6844E-01  0.1217E+01
     -1.053  0.8165E-01  0.1225E+01
     -0.955  0.1027E+00  0.1235E+01
     -0.857  0.1190E+00  0.1247E+01
     -0.759  0.1267E+00  0.1259E+01
     -0.661  0.1267E+00  0.1272E+01
     -0.564  0.1261E+00  0.1284E+01
     -0.466  0.9310E-01  0.1293E+01
     -0.368  0.8310E-01  0.1301E+01
     -0.270  0.7911E-01  0.1309E+01
     -0.172  0.7700E-01  0.1317E+01
     -0.074  0.7133E-01  0.1324E+01
      0.024  0.7837E-01  0.1331E+01
      0.122  0.6920E-01  0.1338E+01
      0.220  0.3701E-01  0.1342E+01
      0.318  0.3774E-01  0.1345E+01
      0.416  0.4973E-01  0.1350E+01
      0.514  0.4370E-01  0.1355E+01
      0.612  0.5974E-01  0.1360E+01
      0.710  0.6290E-01  0.1367E+01
      0.808  0.5060E-01  0.1372E+01
      0.906  0.4492E-01  0.1376E+01
      1.004  0.5124E-01  0.1381E+01
      1.102  0.5447E-01  0.1386E+01
      1.200  0.7171E-01  0.1393E+01
      1.297  0.9377E-01  0.1403E+01
      1.395  0.8427E-01  0.1411E+01
      1.493  0.5782E-01  0.1416E+01
      1.591  0.5269E-01  0.1422E+01
      1.689  0.6560E-01  0.1428E+01
      1.787  0.6590E-01  0.1434E+01
      1.885  0.8540E-01  0.1443E+01
      1.983  0.1083E+00  0.1453E+01
      2.081  0.1046E+00  0.1464E+01
      2.179  0.7880E-01  0.1471E+01
      2.277  0.6287E-01  0.1478E+01
      2.375  0.7501E-01  0.1485E+01
      2.473  0.1007E+00  0.1495E+01
      2.571  0.9445E-01  0.1504E+01
      2.669  0.1100E+00  0.1515E+01
      2.767  0.1332E+00  0.1528E+01
      2.865  0.1305E+00  0.1541E+01
      2.963  0.1164E+00  0.1552E+01
      3.061  0.1165E+00  0.1563E+01
      3.158  0.1168E+00  0.1575E+01
      3.256  0.1256E+00  0.1587E+01
      3.354  0.1608E+00  0.1603E+01
      3.452  0.1363E+00  0.1616E+01
      3.550  0.1628E+00  0.1632E+01
      3.648  0.1650E+00  0.1648E+01
      3.746  0.1677E+00  0.1665E+01
      3.844  0.2118E+00  0.1686E+01
      3.942  0.1669E+00  0.1702E+01
      4.040  0.1389E+00  0.1716E+01
      4.138  0.1320E+00  0.1728E+01
      4.236  0.1262E+00  0.1741E+01
      4.334  0.1105E+00  0.1752E+01
      4.432  0.9482E-01  0.1761E+01
      4.530  0.8299E-01  0.1769E+01
      4.628  0.6319E-01  0.1775E+01
      4.726  0.6626E-01  0.1782E+01
      4.824  0.5483E-01  0.1787E+01
      4.922  0.4038E-01  0.1791E+01
      5.020  0.4057E-01  0.1795E+01
      5.117  0.2718E-01  0.1798E+01
      5.215  0.1652E-01  0.1799E+01
      5.313  0.5884E-02  0.1800E+01
      5.411  0.6585E-03  0.1800E+01
      5.509  0.1872E-04  0.1800E+01
      5.607  0.1146E-06  0.1800E+01
      5.705  0.1296E-09  0.1800E+01
      5.803  0.2445E-13  0.1800E+01
      5.901  0.7871E-18  0.1800E+01
      5.999  0.0000E+00  0.1800E+01
      6.097  0.0000E+00  0.1800E+01
      6.195  0.0000E+00  0.1800E+01
      6.293  0.0000E+00  0.1800E+01
      6.391  0.0000E+00  0.1800E+01
      6.489  0.5622E-19  0.1800E+01
      6.587  0.1878E-14  0.1800E+01
      6.685  0.1345E-10  0.1800E+01
      6.783  0.1492E-07  0.1800E+01
      6.881  0.2636E-05  0.1800E+01
      6.978  0.7808E-04  0.1800E+01
      7.076  0.4169E-03  0.1800E+01
      7.174  0.4278E-03  0.1800E+01
      7.272  0.8447E-04  0.1800E+01
      7.370  0.3374E-05  0.1800E+01
      7.468  0.3983E-04  0.1800E+01
      7.566  0.8339E-03  0.1800E+01
      7.664  0.3529E-02  0.1801E+01
      7.762  0.3120E-02  0.1801E+01
      7.860  0.6065E-03  0.1801E+01
      7.958  0.1177E-02  0.1801E+01
      8.056  0.5348E-02  0.1802E+01
      8.154  0.4769E-02  0.1802E+01
      8.252  0.1063E-02  0.1802E+01
      8.350  0.2022E-02  0.1802E+01
      8.448  0.3481E-02  0.1803E+01
      8.546  0.4355E-02  0.1803E+01
      8.644  0.9515E-02  0.1804E+01
      8.742  0.9772E-02  0.1805E+01
      8.839  0.1273E-01  0.1806E+01
      8.937  0.7600E-02  0.1807E+01
      9.035  0.9789E-03  0.1807E+01
      9.133  0.1743E-02  0.1807E+01
      9.231  0.1145E-01  0.1808E+01
      9.329  0.2645E-01  0.1811E+01
      9.427  0.3914E-01  0.1815E+01
      9.525  0.4147E-01  0.1819E+01
      9.623  0.3596E-01  0.1822E+01
      9.721  0.5060E-01  0.1827E+01
      9.819  0.6342E-01  0.1834E+01
      9.917  0.8532E-01  0.1842E+01
     10.015  0.8396E-01  0.1850E+01
     10.113  0.5863E-01  0.1856E+01
     10.211  0.6881E-01  0.1863E+01
     10.309  0.8403E-01  0.1871E+01
     10.407  0.8035E-01  0.1879E+01
     10.505  0.9036E-01  0.1888E+01
     10.603  0.8852E-01  0.1896E+01
     10.700  0.9077E-01  0.1905E+01
     10.798  0.1095E+00  0.1916E+01
     10.896  0.9539E-01  0.1925E+01
     10.994  0.9845E-01  0.1935E+01
     11.092  0.1042E+00  0.1945E+01
     11.190  0.9168E-01  0.1954E+01
     11.288  0.6854E-01  0.1961E+01
     11.386  0.6838E-01  0.1967E+01
     11.484  0.6868E-01  0.1974E+01
     11.582  0.7097E-01  0.1981E+01
     11.680  0.5940E-01  0.1987E+01
     11.778  0.4959E-01  0.1992E+01
     11.876  0.3758E-01  0.1995E+01
     11.974  0.4152E-01  0.1999E+01
     12.072  0.6604E-01  0.2006E+01
     12.170  0.7431E-01  0.2013E+01
     12.268  0.7053E-01  0.2020E+01
     12.366  0.5504E-01  0.2026E+01
     12.464  0.5884E-01  0.2031E+01
     12.561  0.8414E-01  0.2040E+01
     12.659  0.9292E-01  0.2049E+01
     12.757  0.9513E-01  0.2058E+01
     12.855  0.1162E+00  0.2069E+01
     12.953  0.1430E+00  0.2083E+01
     13.051  0.1492E+00  0.2098E+01
     13.149  0.1500E+00  0.2113E+01
     13.247  0.1609E+00  0.2128E+01
     13.345  0.1965E+00  0.2148E+01
     13.443  0.1795E+00  0.2165E+01
     13.541  0.1113E+00  0.2176E+01
     13.639  0.6981E-01  0.2183E+01
     13.737  0.4980E-01  0.2188E+01
     13.835  0.2672E-01  0.2190E+01
     13.933  0.2473E-01  0.2193E+01
     14.031  0.3436E-01  0.2196E+01
     14.129  0.4936E-01  0.2201E+01
     14.227  0.5539E-01  0.2207E+01
     14.325  0.5028E-01  0.2211E+01
     14.422  0.4539E-01  0.2216E+01
     14.520  0.7860E-01  0.2224E+01
     14.618  0.8490E-01  0.2232E+01
     14.716  0.8302E-01  0.2240E+01
     14.814  0.1352E+00  0.2253E+01
     14.912  0.1727E+00  0.2270E+01
     15.010  0.1603E+00  0.2286E+01
     15.108  0.1416E+00  0.2300E+01
     15.206  0.1350E+00  0.2313E+01
     15.304  0.1711E+00  0.2330E+01
     15.402  0.1528E+00  0.2345E+01
     15.500  0.1073E+00  0.2355E+01
     15.598  0.1053E+00  0.2366E+01
     15.696  0.9665E-01  0.2375E+01
     15.794  0.8207E-01  0.2383E+01
     15.892  0.7477E-01  0.2390E+01
     15.990  0.5947E-01  0.2396E+01
     16.088  0.3275E-01  0.2399E+01
     16.186  0.5778E-02  0.2400E+01
     16.283  0.2340E-03  0.2400E+01
     16.381  0.1895E-05  0.2400E+01
     16.479  0.2759E-08  0.2400E+01
     16.577  0.6707E-12  0.2400E+01
     16.675  0.2564E-16  0.2400E+01
     16.773  0.0000E+00  0.2400E+01
     16.871  0.0000E+00  0.2400E+01
     16.969  0.0000E+00  0.2400E+01
     17.067  0.0000E+00  0.2400E+01
     17.165  0.0000E+00  0.2400E+01
     17.263  0.0000E+00  0.2400E+01
     17.361  0.0000E+00  0.2400E+01
     17.36092521    -12.02341259  301      5.70666831      1.00000000
    -12.023  0.0000E+00  0.0000E+00  0.0000E+00
    -11.925  0.0000E+00  0.0000E+00  0.0000E+00
    -11.828  0.0000E+00  0.0000E+00  0.0000E+00
    -11.730  0.0000E+00  0.0000E+00  0.0000E+00
    -11.632  0.0000E+00  0.0000E+00  0.0000E+00
    -11.534  0.0000E+00  0.0000E+00  0.0000E+00
    -11.436  0.0000E+00  0.0000E+00  0.0000E+00
    -11.338  0.0000E+00  0.0000E+00  0.0000E+00
    -11.240  0.6697E-17  0.5714E-22  0.3656E-21
    -11.142  0.1548E-12  0.2480E-16  0.8840E-16
    -11.044  0.5612E-09  0.2892E-12  0.1004E-11
    -10.946  0.3395E-06  0.5457E-09  0.1885E-08
    -10.848  0.3969E-04  0.1728E-06  0.5986E-06
    -10.750  0.1125E-02  0.1023E-04  0.3574E-04
    -10.652  0.9236E-02  0.1384E-03  0.4936E-03
    -10.554  0.2586E-01  0.6338E-03  0.2417E-02
    -10.456  0.4207E-01  0.1859E-02  0.7819E-02
    -10.358  0.5526E-01  0.3578E-02  0.1648E-01
    -10.260  0.6500E-01  0.6386E-02  0.3394E-01
    -10.162  0.8009E-01  0.1053E-01  0.6301E-01
    -10.064  0.9059E-01  0.1669E-01  0.1166E+00
     -9.967  0.1092E+00  0.2804E-01  0.2310E+00
     -9.869  0.1336E+00  0.5222E-01  0.5226E+00
     -9.771  0.1633E+00  0.1080E+00  0.1283E+01
     -9.673  0.1475E+00  0.1885E+00  0.2497E+01
     -9.575  0.6950E-01  0.1683E+00  0.2351E+01
     -9.477  0.1197E-01  0.4500E-01  0.6420E+00
     -9.379  0.5407E-03  0.2655E-02  0.3824E-01
     -9.281  0.5074E-05  0.2930E-04  0.4239E-03
     -9.183  0.8608E-08  0.5496E-07  0.7968E-06
     -9.085  0.2441E-11  0.1660E-10  0.2410E-09
     -8.987  0.1102E-15  0.7851E-15  0.1140E-13
     -8.889  0.0000E+00  0.0000E+00  0.0000E+00
     -8.791  0.0000E+00  0.0000E+00  0.0000E+00
     -8.693  0.1166E-15  0.1037E-15  0.2659E-12
     -8.595  0.1510E-11  0.1333E-11  0.3258E-08
     -8.497  0.3486E-08  0.2982E-08  0.6856E-05
     -8.399  0.1529E-05  0.1224E-05  0.2622E-02
     -8.301  0.1362E-03  0.9833E-04  0.1962E+00
     -8.203  0.2696E-02  0.1697E-02  0.3177E+01
     -8.106  0.1399E-01  0.7342E-02  0.1307E+02
     -8.008  0.2699E-01  0.1106E-01  0.1988E+02
     -7.910  0.2886E-01  0.9887E-02  0.2207E+02
     -7.812  0.2114E-01  0.5869E-02  0.1741E+02
     -7.714  0.2064E-01  0.3337E-02  0.5724E+01
     -7.616  0.2843E-01  0.4459E-02  0.9608E+00
     -7.518  0.3323E-01  0.6065E-02  0.5253E+00
     -7.420  0.2873E-01  0.6116E-02  0.3959E+00
     -7.322  0.3431E-01  0.8919E-02  0.4166E+00
     -7.224  0.4696E-01  0.1367E-01  0.5447E+00
     -7.126  0.4229E-01  0.1420E-01  0.4776E+00
     -7.028  0.3851E-01  0.1538E-01  0.4254E+00
     -6.930  0.4469E-01  0.2054E-01  0.4921E+00
     -6.832  0.5136E-01  0.2621E-01  0.5763E+00
     -6.734  0.5460E-01  0.3261E-01  0.6503E+00
     -6.636  0.5492E-01  0.4079E-01  0.7086E+00
     -6.538  0.5058E-01  0.4539E-01  0.7110E+00
     -6.440  0.4529E-01  0.5041E-01  0.7190E+00
     -6.342  0.3957E-01  0.6081E-01  0.7625E+00
     -6.244  0.2809E-01  0.6517E-01  0.7261E+00
     -6.147  0.2059E-01  0.7810E-01  0.7955E+00
     -6.049  0.1353E-01  0.7744E-01  0.7550E+00
     -5.951  0.5248E-02  0.4436E-01  0.4262E+00
     -5.853  0.8909E-03  0.1169E-01  0.1115E+00
     -5.755  0.4757E-04  0.1066E-02  0.1011E-01
     -5.657  0.6021E-06  0.2761E-04  0.2610E-03
     -5.559  0.1606E-08  0.1665E-06  0.1573E-05
     -5.461  0.9211E-12  0.1901E-09  0.1796E-08
     -5.363  0.1158E-15  0.3606E-13  0.3407E-12
     -5.265  0.2637E-20  0.1085E-17  0.1025E-16
     -5.167  0.0000E+00  0.0000E+00  0.0000E+00
     -5.069  0.0000E+00  0.0000E+00  0.0000E+00
     -4.971  0.0000E+00  0.0000E+00  0.0000E+00
     -4.873  0.0000E+00  0.0000E+00  0.0000E+00
     -4.775  0.0000E+00  0.0000E+00  0.0000E+00
     -4.677  0.0000E+00  0.0000E+00  0.0000E+00
     -4.579  0.0000E+00  0.0000E+00  0.0000E+00
     -4.481  0.0000E+00  0.0000E+00  0.0000E+00
     -4.383  0.0000E+00  0.0000E+00  0.0000E+00
     -4.286  0.0000E+00  0.0000E+00  0.0000E+00
     -4.188  0.0000E+00  0.0000E+00  0.0000E+00
     -4.090  0.0000E+00  0.0000E+00  0.0000E+00
     -3.992  0.0000E+00  0.0000E+00  0.0000E+00
     -3.894  0.0000E+00  0.0000E+00  0.0000E+00
     -3.796  0.0000E+00  0.0000E+00  0.0000E+00
     -3.698  0.0000E+00  0.0000E+00  0.0000E+00
     -3.600  0.0000E+00  0.0000E+00  0.0000E+00
     -3.502  0.0000E+00  0.0000E+00  0.0000E+00
     -3.404  0.0000E+00  0.0000E+00  0.0000E+00
     -3.306  0.0000E+00  0.0000E+00  0.0000E+00
     -3.208  0.0000E+00  0.0000E+00  0.0000E+00
     -3.110  0.0000E+00  0.0000E+00  0.0000E+00
     -3.012  0.0000E+00  0.0000E+00  0.0000E+00
     -2.914  0.0000E+00  0.0000E+00  0.0000E+00
     -2.816  0.0000E+00  0.0000E+00  0.0000E+00
     -2.718  0.0000E+00  0.0000E+00  0.0000E+00
     -2.620  0.0000E+00  0.0000E+00  0.0000E+00
     -2.522  0.0000E+00  0.0000E+00  0.0000E+00
     -2.425  0.0000E+00  0.0000E+00  0.0000E+00
     -2.327  0.3581E-17  0.1585E-17  0.6802E-19
     -2.229  0.9350E-13  0.4137E-13  0.1776E-14
     -2.131  0.3707E-09  0.1640E-09  0.7043E-11
     -2.033  0.2308E-06  0.1021E-06  0.4387E-08
     -1.935  0.2415E-04  0.1068E-04  0.4609E-06
     -1.837  0.5247E-03  0.2314E-03  0.1019E-04
     -1.739  0.3561E-02  0.1561E-02  0.7149E-04
     -1.641  0.8471E-02  0.3664E-02  0.1816E-03
     -1.543  0.1110E-01  0.3910E-02  0.4417E-03
     -1.445  0.3595E-01  0.9715E-02  0.2227E-02
     -1.347  0.9524E-01  0.2288E-01  0.7049E-02
     -1.249  0.1640E+00  0.3513E-01  0.1312E-01
     -1.151  0.2106E+00  0.4346E-01  0.1666E-01
     -1.053  0.2513E+00  0.5175E-01  0.2025E-01
     -0.955  0.3319E+00  0.5694E-01  0.2647E-01
     -0.857  0.3947E+00  0.6117E-01  0.3022E-01
     -0.759  0.4183E+00  0.6459E-01  0.3405E-01
     -0.661  0.4223E+00  0.6225E-01  0.3422E-01
     -0.564  0.4244E+00  0.5968E-01  0.3415E-01
     -0.466  0.3007E+00  0.4623E-01  0.3023E-01
     -0.368  0.2357E+00  0.4946E-01  0.3758E-01
     -0.270  0.2125E+00  0.5154E-01  0.3734E-01
     -0.172  0.2066E+00  0.5143E-01  0.3415E-01
     -0.074  0.1937E+00  0.4601E-01  0.3168E-01
      0.024  0.1980E+00  0.5445E-01  0.3846E-01
      0.122  0.1640E+00  0.5437E-01  0.3254E-01
      0.220  0.8119E-01  0.3187E-01  0.1762E-01
      0.318  0.7326E-01  0.3520E-01  0.2011E-01
      0.416  0.8827E-01  0.4950E-01  0.2794E-01
      0.514  0.7778E-01  0.4149E-01  0.2664E-01
      0.612  0.9152E-01  0.6853E-01  0.3144E-01
      0.710  0.9008E-01  0.7689E-01  0.3171E-01
      0.808  0.6125E-01  0.6722E-01  0.2677E-01
      0.906  0.5024E-01  0.6194E-01  0.2366E-01
      1.004  0.6261E-01  0.6702E-01  0.2782E-01
      1.102  0.5794E-01  0.8227E-01  0.2379E-01
      1.200  0.6184E-01  0.1203E+00  0.2763E-01
      1.297  0.8636E-01  0.1525E+00  0.3786E-01
      1.395  0.8505E-01  0.1282E+00  0.3746E-01
      1.493  0.5594E-01  0.8475E-01  0.2886E-01
      1.591  0.4678E-01  0.7722E-01  0.2805E-01
      1.689  0.4454E-01  0.1071E+00  0.3214E-01
      1.787  0.3943E-01  0.1105E+00  0.3221E-01
      1.885  0.5677E-01  0.1391E+00  0.4208E-01
      1.983  0.7571E-01  0.1721E+00  0.5468E-01
      2.081  0.6645E-01  0.1751E+00  0.4766E-01
      2.179  0.4517E-01  0.1369E+00  0.3400E-01
      2.277  0.2516E-01  0.1142E+00  0.2724E-01
      2.375  0.2607E-01  0.1368E+00  0.3281E-01
      2.473  0.4466E-01  0.1704E+00  0.5009E-01
      2.571  0.4346E-01  0.1536E+00  0.4963E-01
      2.669  0.3497E-01  0.1901E+00  0.5484E-01
      2.767  0.3619E-01  0.2354E+00  0.6490E-01
      2.865  0.3827E-01  0.2274E+00  0.6480E-01
      2.963  0.3203E-01  0.2022E+00  0.5910E-01
      3.061  0.2843E-01  0.1982E+00  0.6380E-01
      3.158  0.2370E-01  0.1979E+00  0.6398E-01
      3.256  0.2949E-01  0.2008E+00  0.7344E-01
      3.354  0.3557E-01  0.2531E+00  0.9791E-01
      3.452  0.2880E-01  0.2112E+00  0.8517E-01
      3.550  0.2658E-01  0.2524E+00  0.1019E+00
      3.648  0.1997E-01  0.2541E+00  0.1058E+00
      3.746  0.1400E-01  0.2575E+00  0.1065E+00
      3.844  0.1367E-01  0.3248E+00  0.1324E+00
      3.942  0.1268E-01  0.2461E+00  0.1122E+00
      4.040  0.1085E-01  0.1922E+00  0.1025E+00
      4.138  0.9028E-02  0.1753E+00  0.1020E+00
      4.236  0.9472E-02  0.1583E+00  0.1025E+00
      4.334  0.5755E-02  0.1345E+00  0.9234E-01
      4.432  0.2647E-02  0.1107E+00  0.8293E-01
      4.530  0.2975E-02  0.9111E-01  0.7637E-01
      4.628  0.3652E-02  0.6227E-01  0.6138E-01
      4.726  0.1955E-02  0.6145E-01  0.6670E-01
      4.824  0.6502E-03  0.4862E-01  0.5686E-01
      4.922  0.2338E-03  0.3178E-01  0.4399E-01
      5.020  0.9664E-04  0.2890E-01  0.4585E-01
      5.117  0.4592E-04  0.1739E-01  0.3176E-01
      5.215  0.9917E-05  0.9142E-02  0.2005E-01
      5.313  0.2032E-05  0.3004E-02  0.7282E-02
      5.411  0.2265E-06  0.3172E-03  0.8270E-03
      5.509  0.5527E-08  0.8609E-05  0.2378E-04
      5.607  0.2364E-10  0.5107E-07  0.1466E-06
      5.705  0.1632E-13  0.5683E-10  0.1666E-09
      5.803  0.1748E-17  0.1064E-13  0.3148E-13
      5.901  0.1257E-28  0.3403E-18  0.1015E-17
      5.999  0.0000E+00  0.0000E+00  0.0000E+00
      6.097  0.0000E+00  0.0000E+00  0.0000E+00
      6.195  0.0000E+00  0.0000E+00  0.0000E+00
      6.293  0.0000E+00  0.0000E+00  0.0000E+00
      6.391  0.0000E+00  0.0000E+00  0.0000E+00
      6.489  0.1495E-18  0.5104E-21  0.4772E-23
      6.587  0.4994E-14  0.1705E-16  0.1594E-18
      6.685  0.3577E-10  0.1221E-12  0.1142E-14
      6.783  0.3965E-07  0.1354E-09  0.1266E-11
      6.881  0.7007E-05  0.2393E-07  0.2237E-09
      6.978  0.2076E-03  0.7088E-06  0.6627E-08
      7.076  0.1108E-02  0.3784E-05  0.3538E-07
      7.174  0.1137E-02  0.3883E-05  0.3631E-07
      7.272  0.2246E-03  0.7669E-06  0.7234E-08
      7.370  0.8770E-05  0.8298E-07  0.4036E-07
      7.468  0.8358E-04  0.6427E-05  0.4408E-05
      7.566  0.1747E-02  0.1410E-03  0.9175E-04
      7.664  0.7379E-02  0.6208E-03  0.3861E-03
      7.762  0.6517E-02  0.5652E-03  0.3400E-03
      7.860  0.1255E-02  0.1156E-03  0.6652E-04
      7.958  0.2199E-02  0.3094E-03  0.1438E-03
      8.056  0.9974E-02  0.1413E-02  0.6547E-03
      8.154  0.8893E-02  0.1260E-02  0.5836E-03
      8.252  0.1962E-02  0.3119E-03  0.1229E-03
      8.350  0.3609E-02  0.7814E-03  0.1899E-03
      8.448  0.6217E-02  0.1347E-02  0.3249E-03
      8.546  0.7591E-02  0.1866E-02  0.3790E-03
      8.644  0.1612E-01  0.4457E-02  0.7829E-03
      8.742  0.1633E-01  0.4726E-02  0.7976E-03
      8.839  0.2097E-01  0.6428E-02  0.1017E-02
      8.937  0.1249E-01  0.3907E-02  0.5967E-03
      9.035  0.1609E-02  0.5170E-03  0.7409E-04
      9.133  0.2812E-02  0.1117E-02  0.9373E-04
      9.231  0.1803E-01  0.7683E-02  0.6888E-03
      9.329  0.4118E-01  0.2124E-01  0.2975E-02
      9.427  0.6332E-01  0.4049E-01  0.9611E-02
      9.525  0.7092E-01  0.4942E-01  0.1324E-01
      9.623  0.5916E-01  0.4768E-01  0.1279E-01
      9.721  0.7586E-01  0.7134E-01  0.2355E-01
      9.819  0.1014E+00  0.9110E-01  0.2929E-01
      9.917  0.1528E+00  0.1154E+00  0.3028E-01
     10.015  0.1481E+00  0.1062E+00  0.2545E-01
     10.113  0.9160E-01  0.7363E-01  0.1663E-01
     10.211  0.9801E-01  0.9722E-01  0.3073E-01
     10.309  0.1184E+00  0.1238E+00  0.4913E-01
     10.407  0.1145E+00  0.1201E+00  0.5096E-01
     10.505  0.1400E+00  0.1335E+00  0.5233E-01
     10.603  0.1439E+00  0.1229E+00  0.4759E-01
     10.700  0.1385E+00  0.1257E+00  0.5729E-01
     10.798  0.1636E+00  0.1552E+00  0.7624E-01
     10.896  0.1383E+00  0.1389E+00  0.6581E-01
     10.994  0.1381E+00  0.1431E+00  0.6814E-01
     11.092  0.1406E+00  0.1523E+00  0.8422E-01
     11.190  0.1497E+00  0.1262E+00  0.6913E-01
     11.288  0.1322E+00  0.8148E-01  0.4124E-01
     11.386  0.1416E+00  0.8281E-01  0.3564E-01
     11.484  0.1294E+00  0.8975E-01  0.4360E-01
     11.582  0.1005E+00  0.9138E-01  0.5218E-01
     11.680  0.6339E-01  0.7926E-01  0.4852E-01
     11.778  0.5672E-01  0.6153E-01  0.3829E-01
     11.876  0.5724E-01  0.4306E-01  0.2723E-01
     11.974  0.7202E-01  0.4420E-01  0.3075E-01
     12.072  0.1194E+00  0.5737E-01  0.4679E-01
     12.170  0.1313E+00  0.6791E-01  0.5257E-01
     12.268  0.1257E+00  0.7284E-01  0.4909E-01
     12.366  0.1101E+00  0.5589E-01  0.3804E-01
     12.464  0.1121E+00  0.6275E-01  0.4312E-01
     12.561  0.1483E+00  0.1065E+00  0.6612E-01
     12.659  0.1745E+00  0.1238E+00  0.7110E-01
     12.757  0.2022E+00  0.1159E+00  0.7108E-01
     12.855  0.2393E+00  0.1424E+00  0.9210E-01
     12.953  0.2901E+00  0.1784E+00  0.1102E+00
     13.051  0.3014E+00  0.1795E+00  0.1148E+00
     13.149  0.3100E+00  0.1681E+00  0.1159E+00
     13.247  0.3431E+00  0.1900E+00  0.1122E+00
     13.345  0.4214E+00  0.2371E+00  0.1255E+00
     13.443  0.3658E+00  0.2100E+00  0.1127E+00
     13.541  0.2057E+00  0.1340E+00  0.7149E-01
     13.639  0.1027E+00  0.1005E+00  0.4422E-01
     13.737  0.6875E-01  0.7713E-01  0.2892E-01
     13.835  0.3639E-01  0.5794E-01  0.1488E-01
     13.933  0.2355E-01  0.6614E-01  0.1587E-01
     14.031  0.2649E-01  0.6771E-01  0.2297E-01
     14.129  0.3663E-01  0.8522E-01  0.3184E-01
     14.227  0.5021E-01  0.1006E+00  0.3297E-01
     14.325  0.5768E-01  0.8349E-01  0.2775E-01
     14.422  0.4484E-01  0.7949E-01  0.3170E-01
     14.520  0.5993E-01  0.1598E+00  0.6079E-01
     14.618  0.6332E-01  0.1963E+00  0.6581E-01
     14.716  0.5392E-01  0.1988E+00  0.7362E-01
     14.814  0.7386E-01  0.3265E+00  0.1278E+00
     14.912  0.8615E-01  0.4317E+00  0.1535E+00
     15.010  0.7586E-01  0.4211E+00  0.1284E+00
     15.108  0.6525E-01  0.4004E+00  0.1078E+00
     15.206  0.5836E-01  0.3876E+00  0.1055E+00
     15.304  0.6846E-01  0.5006E+00  0.1373E+00
     15.402  0.6232E-01  0.4625E+00  0.1157E+00
     15.500  0.4287E-01  0.3303E+00  0.7772E-01
     15.598  0.3774E-01  0.3547E+00  0.7951E-01
     15.696  0.2720E-01  0.3976E+00  0.6905E-01
     15.794  0.1912E-01  0.3448E+00  0.6214E-01
     15.892  0.1610E-01  0.3099E+00  0.6015E-01
     15.990  0.1363E-01  0.2571E+00  0.4451E-01
     16.088  0.7874E-02  0.1451E+00  0.2279E-01
     16.186  0.1468E-02  0.2559E-01  0.3849E-02
     16.283  0.6711E-04  0.1013E-02  0.1505E-03
     16.381  0.6254E-06  0.7943E-05  0.1180E-05
     16.479  0.1026E-08  0.1128E-07  0.1659E-08
     16.577  0.2729E-12  0.2701E-11  0.3876E-12
     16.675  0.1131E-16  0.1003E-15  0.1463E-16
     16.773  0.0000E+00  0.0000E+00  0.0000E+00
     16.871  0.0000E+00  0.0000E+00  0.0000E+00
     16.969  0.0000E+00  0.0000E+00  0.0000E+00
     17.067  0.0000E+00  0.0000E+00  0.0000E+00
     17.165  0.0000E+00  0.0000E+00  0.0000E+00
     17.263  0.0000E+00  0.0000E+00  0.0000E+00
     17.361  0.0000E+00  0.0000E+00  0.0000E+00
     17.36092521    -12.02341259  301      5.70666831      1.00000000
    -12.023  0.0000E+00  0.0000E+00  0.0000E+00
    -11.925  0.0000E+00  0.0000E+00  0.0000E+00
    -11.828  0.0000E+00  0.0000E+00  0.0000E+00
    -11.730  0.0000E+00  0.0000E+00  0.0000E+00
    -11.632  0.0000E+00  0.0000E+00  0.0000E+00
    -11.534  0.0000E+00  0.0000E+00  0.0000E+00
    -11.436  0.0000E+00  0.0000E+00  0.0000E+00
    -11.338  0.0000E+00  0.0000E+00  0.0000E+00
    -11.240  0.6697E-17  0.5714E-22  0.3656E-21
    -11.142  0.1548E-12  0.2480E-16  0.8840E-16
    -11.044  0.5612E-09  0.2892E-12  0.1004E-11
    -10.946  0.3395E-06  0.5457E-09  0.1885E-08
    -10.848  0.3969E-04  0.1728E-06  0.5986E-06
    -10.750  0.1125E-02  0.1023E-04  0.3574E-04
    -10.652  0.9236E-02  0.1384E-03  0.4936E-03
    -10.554  0.2586E-01  0.6338E-03  0.2417E-02
    -10.456  0.4207E-01  0.1859E-02  0.7819E-02
    -10.358  0.5526E-01  0.3578E-02  0.1648E-01
    -10.260  0.6500E-01  0.6386E-02  0.3394E-01
    -10.162  0.8009E-01  0.1053E-01  0.6301E-01
    -10.064  0.9059E-01  0.1669E-01  0.1166E+00
     -9.967  0.1092E+00  0.2804E-01  0.2310E+00
     -9.869  0.1336E+00  0.5222E-01  0.5226E+00
     -9.771  0.1633E+00  0.1080E+00  0.1283E+01
     -9.673  0.1475E+00  0.1885E+00  0.2497E+01
     -9.575  0.6950E-01  0.1683E+00  0.2351E+01
     -9.477  0.1197E-01  0.4500E-01  0.6420E+00
     -9.379  0.5407E-03  0.2655E-02  0.3824E-01
     -9.281  0.5074E-05  0.2930E-04  0.4239E-03
     -9.183  0.8608E-08  0.5496E-07  0.7968E-06
     -9.085  0.2441E-11  0.1660E-10  0.2410E-09
     -8.987  0.1102E-15  0.7851E-15  0.1140E-13
     -8.889  0.0000E+00  0.0000E+00  0.0000E+00
     -8.791  0.0000E+00  0.0000E+00  0.0000E+00
     -8.693  0.1166E-15  0.1037E-15  0.2659E-12
     -8.595  0.1510E-11  0.1333E-11  0.3258E-08
     -8.497  0.3486E-08  0.2982E-08  0.6856E-05
     -8.399  0.1529E-05  0.1224E-05  0.2622E-02
     -8.301  0.1362E-03  0.9833E-04  0.1962E+00
     -8.203  0.2696E-02  0.1697E-02  0.3177E+01
     -8.106  0.1399E-01  0.7342E-02  0.1307E+02
     -8.008  0.2699E-01  0.1106E-01  0.1988E+02
     -7.910  0.2886E-01  0.9887E-02  0.2207E+02
     -7.812  0.2114E-01  0.5869E-02  0.1741E+02
     -7.714  0.2064E-01  0.3337E-02  0.5724E+01
     -7.616  0.2843E-01  0.4459E-02  0.9608E+00
     -7.518  0.3323E-01  0.6065E-02  0.5253E+00
     -7.420  0.2873E-01  0.6116E-02  0.3959E+00
     -7.322  0.3431E-01  0.8919E-02  0.4166E+00
     -7.224  0.4696E-01  0.1367E-01  0.5447E+00
     -7.126  0.4229E-01  0.1420E-01  0.4776E+00
     -7.028  0.3851E-01  0.1538E-01  0.4254E+00
     -6.930  0.4469E-01  0.2054E-01  0.4921E+00
     -6.832  0.5136E-01  0.2621E-01  0.5763E+00
     -6.734  0.5460E-01  0.3261E-01  0.6503E+00
     -6.636  0.5492E-01  0.4079E-01  0.7086E+00
     -6.538  0.5058E-01  0.4539E-01  0.7110E+00
     -6.440  0.4529E-01  0.5041E-01  0.7190E+00
     -6.342  0.3957E-01  0.6081E-01  0.7625E+00
     -6.244  0.2809E-01  0.6517E-01  0.7261E+00
     -6.147  0.2059E-01  0.7810E-01  0.7955E+00
     -6.049  0.1353E-01  0.7744E-01  0.7550E+00
     -5.951  0.5248E-02  0.4436E-01  0.4262E+00
     -5.853  0.8909E-03  0.1169E-01  0.1115E+00
     -5.755  0.4757E-04  0.1066E-02  0.1011E-01
     -5.657  0.6021E-06  0.2761E-04  0.2610E-03
     -5.559  0.1606E-08  0.1665E-06  0.1573E-05
     -5.461  0.9211E-12  0.1901E-09  0.1796E-08
     -5.363  0.1158E-15  0.3606E-13  0.3407E-12
     -5.265  0.2637E-20  0.1085E-17  0.1025E-16
     -5.167  0.0000E+00  0.0000E+00  0.0000E+00
     -5.069  0.0000E+00  0.0000E+00  0.0000E+00
     -4.971  0.0000E+00  0.0000E+00  0.0000E+00
     -4.873  0.0000E+00  0.0000E+00  0.0000E+00
     -4.775  0.0000E+00  0.0000E+00  0.0000E+00
     -4.677  0.0000E+00  0.0000E+00  0.0000E+00
     -4.579  0.0000E+00  0.0000E+00  0.0000E+00
     -4.481  0.0000E+00  0.0000E+00  0.0000E+00
     -4.383  0.0000E+00  0.0000E+00  0.0000E+00
     -4.286  0.0000E+00  0.0000E+00  0.0000E+00
     -4.188  0.0000E+00  0.0000E+00  0.0000E+00
     -4.090  0.0000E+00  0.0000E+00  0.0000E+00
     -3.992  0.0000E+00  0.0000E+00  0.0000E+00
     -3.894  0.0000E+00  0.0000E+00  0.0000E+00
     -3.796  0.0000E+00  0.0000E+00  0.0000E+00
     -3.698  0.0000E+00  0.0000E+00  0.0000E+00
     -3.600  0.0000E+00  0.0000E+00  0.0000E+00
     -3.502  0.0000E+00  0.0000E+00  0.0000E+00
     -3.404  0.0000E+00  0.0000E+00  0.0000E+00
     -3.306  0.0000E+00  0.0000E+00  0.0000E+00