    4    4   20    1
  0.1131043E+02  0.3180000E-09  0.3180000E-09  0.5166000E-09  0.5000000E-15
  1.000000000000000E-004
  CAR 
 unknown system                          
     36     76     24
 
  0.0000000E+00  0.0000000E+00  0.0000000E+00  0.9920635E-03
      1        -10.687761   1.000000
      2         -9.791090   1.000000
      3         -8.198648   1.000000
      4         -8.183603   1.000000
      5         -8.183601   1.000000
      6         -8.123740   1.000000
      7         -8.123735   1.000000
      8         -7.936771   1.000000
      9         -7.936771   1.000000
     10         -7.841220   1.000000
     11         -7.841218   1.000000
     12         -6.613652   1.000000
     13         -1.768336   1.000000
     14          4.205425   1.000000
     15          4.205937   1.000000
     16          5.200139   1.000000
     17          5.232153   1.000000
     18          5.232736   1.000000
     19          7.077954   0.000000
     20          9.420951   0.000000
     21         14.391611   0.000000
     22         15.072724   0.000000
     23         15.072741   0.000000
     24         15.899510   0.000000
 
  0.8333333E-01  0.9923441E-17  0.0000000E+00  0.5952381E-02
      1        -10.620283   1.000000
      2         -9.773574   1.000000
      3         -8.192534   1.000000
      4         -8.173473   1.000000
      5         -8.160555   1.000000
      6         -8.116139   1.000000
      7         -8.110279   1.000000
      8         -7.942215   1.000000
      9         -7.937282   1.000000
     10         -7.852660   1.000000
     11         -7.839576   1.000000
     12         -6.565920   1.000000
     13         -1.669861   1.000000
     14          3.694056   1.000000
     15          4.064905   1.000000
     16          4.600106   1.000000
     17          5.136692   1.000000
     18          5.176603   1.000000
     19          7.665356   0.000000
     20          9.860083   0.000000
     21         14.208871   0.000000
     22         14.586645   0.000000
     23         15.253670   0.000000
     24         15.994209   0.000000
 
  0.1666667E+00  0.8675338E-17  0.0000000E+00  0.5952381E-02
      1        -10.437141   1.000000
      2         -9.731155   1.000000
      3         -8.168875   1.000000
      4         -8.149496   1.000000
      5         -8.104671   1.000000
      6         -8.074405   1.000000
      7         -8.073750   1.000000
      8         -7.957600   1.000000
      9         -7.935327   1.000000
     10         -7.876783   1.000000
     11         -7.835785   1.000000
     12         -6.432540   1.000000
     13         -1.387342   1.000000
     14          2.533657   1.000000
     15          3.503388   1.000000
     16          3.703617   1.000000
     17          4.920251   1.000000
     18          4.998516   1.000000
     19          8.613592   0.000000
     20         10.702627   0.000000
     21         13.357350   0.000000
     22         14.126677   0.000000
     23         15.596987   0.000000
     24         15.656207   0.000000
 
  0.2500000E+00  0.2963162E-16  0.0000000E+00  0.5952381E-02
      1        -10.196138   1.000000
      2         -9.684477   1.000000
      3         -8.144398   1.000000
      4         -8.125835   1.000000
      5         -8.062284   1.000000
      6         -8.024374   1.000000
      7         -7.975023   1.000000
      8         -7.952267   1.000000
      9         -7.921330   1.000000
     10         -7.846163   1.000000
     11         -7.830689   1.000000
     12         -6.243989   1.000000
     13         -0.972276   1.000000
     14          1.268166   1.000000
     15          2.361123   1.000000
     16          3.266683   1.000000
     17          4.534530   1.000000
     18          4.743549   1.000000
     19          9.461770   0.000000
     20         11.109392   0.000000
     21         12.581776   0.000000
     22         13.727258   0.000000
     23         15.334375   0.000000
     24         15.898335   0.000000
 
  0.3333333E+00  0.3955506E-16  0.0000000E+00  0.5952381E-02
      1         -9.979074   1.000000
      2         -9.650405   1.000000
      3         -8.131874   1.000000
      4         -8.113660   1.000000
      5         -8.033317   1.000000
      6         -7.976527   1.000000
      7         -7.974220   1.000000
      8         -7.943349   1.000000
      9         -7.892160   1.000000
     10         -7.824550   1.000000
     11         -7.526286   1.000000
     12         -6.074197   1.000000
     13         -0.684558   1.000000
     14          0.393558   1.000000
     15          1.339924   1.000000
     16          2.875620   1.000000
     17          3.990706   1.000000
     18          4.492408   1.000000
     19         10.052417   0.000000
     20         10.916004   0.000000
     21         11.937479   0.000000
     22         13.616381   0.000000
     23         15.474918   0.000000
     24         15.818089   0.000000
 
  0.4166667E+00  0.8278527E-16  0.0000000E+00  0.5952381E-02
      1         -9.844328   1.000000
      2         -9.633231   1.000000
      3         -8.132488   1.000000
      4         -8.111197   1.000000
      5         -8.021417   1.000000
      6         -7.973090   1.000000
      7         -7.944170   1.000000
      8         -7.933119   1.000000
      9         -7.861990   1.000000
     10         -7.818239   1.000000
     11         -7.049522   1.000000
     12         -6.060158   1.000000
     13         -0.998454   1.000000
     14          0.203512   1.000000
     15          0.895871   1.000000
     16          2.610292   1.000000
     17          3.379862   1.000000
     18          4.310473   1.000000
     19         10.260830   0.000000
     20         10.764297   0.000000
     21         11.438453   0.000000
     22         13.694466   0.000000
     23         15.538386   0.000000
     24         15.659157   0.000000
 
  0.5000000E+00  0.5926324E-16  0.0000000E+00  0.2976190E-02
      1         -9.800805   1.000000
      2         -9.628915   1.000000
      3         -8.134741   1.000000
      4         -8.111312   1.000000
      5         -8.017001   1.000000
      6         -7.975945   1.000000
      7         -7.933230   1.000000
      8         -7.924275   1.000000
      9         -7.849266   1.000000
     10         -7.815279   1.000000
     11         -6.717471   1.000000
     12         -6.187461   1.000000
     13         -1.182524   1.000000
     14         -0.031068   1.000000
     15          1.068604   1.000000
     16          2.515176   1.000000
     17          3.054896   1.000000
     18          4.244061   1.000000
     19         10.268075   0.000000
     20         10.736606   0.000000
     21         11.268727   0.000000
     22         13.762046   0.000000
     23         15.549863   0.000000
     24         15.591649   0.000000
 
  0.8333333E-01  0.8333333E-01  0.0000000E+00  0.5952381E-02
      1        -10.494943   1.000000
      2         -9.743862   1.000000
      3         -8.175476   1.000000
      4         -8.157443   1.000000
      5         -8.119299   1.000000
      6         -8.102901   1.000000
      7         -8.077120   1.000000
      8         -7.951491   1.000000
      9         -7.937911   1.000000
     10         -7.871064   1.000000
     11         -7.836493   1.000000
     12         -6.475233   1.000000
     13         -1.479189   1.000000
     14          2.957537   1.000000
     15          3.507656   1.000000
     16          4.057891   1.000000
     17          4.997441   1.000000
     18          4.998301   1.000000
     19          8.374008   0.000000
     20         10.521456   0.000000
     21         13.861882   0.000000
     22         13.880996   0.000000
     23         15.661209   0.000000
     24         16.025273   0.000000
 
  0.1666667E+00  0.8333333E-01  0.0000000E+00  0.1190476E-01
      1        -10.282219   1.000000
      2         -9.700034   1.000000
      3         -8.147289   1.000000
      4         -8.137645   1.000000
      5         -8.076110   1.000000
      6         -8.058724   1.000000
      7         -7.972839   1.000000
      8         -7.966693   1.000000
      9         -7.930236   1.000000
     10         -7.890130   1.000000
     11         -7.826951   1.000000
     12         -6.311984   1.000000
     13         -1.125950   1.000000
     14          1.855985   1.000000
     15          2.588607   1.000000
     16          3.455369   1.000000
     17          4.702452   1.000000
     18          4.711648   1.000000
     19          9.255168   0.000000
     20         11.291503   0.000000
     21         12.950927   0.000000
     22         13.520885   0.000000
     23         15.363830   0.000000
     24         15.973644   0.000000
 
  0.2500000E+00  0.8333333E-01  0.0000000E+00  0.1190476E-01
      1        -10.054114   1.000000
      2         -9.661548   1.000000
      3         -8.129371   1.000000
      4         -8.123074   1.000000
      5         -8.038788   1.000000
      6         -8.006754   1.000000
      7         -7.977669   1.000000
      8         -7.931525   1.000000
      9         -7.905596   1.000000
     10         -7.840295   1.000000
     11         -7.669256   1.000000
     12         -6.123287   1.000000
     13         -0.724579   1.000000
     14          0.784790   1.000000
     15          1.679392   1.000000
     16          2.851940   1.000000
     17          4.250670   1.000000
     18          4.392985   1.000000
     19         10.036937   0.000000
     20         11.421560   0.000000
     21         12.200635   0.000000
     22         13.466833   0.000000
     23         15.090065   0.000000
     24         16.011560   0.000000
 
  0.3333333E+00  0.8333333E-01  0.0000000E+00  0.1190476E-01
      1         -9.882583   1.000000
      2         -9.638513   1.000000
      3         -8.132657   1.000000
      4         -8.110944   1.000000
      5         -8.014736   1.000000
      6         -7.976334   1.000000
      7         -7.960654   1.000000
      8         -7.938528   1.000000
      9         -7.876881   1.000000
     10         -7.829212   1.000000
     11         -7.249118   1.000000
     12         -6.015562   1.000000
     13         -0.749903   1.000000
     14          0.338616   1.000000
     15          0.989538   1.000000
     16          2.417648   1.000000
     17          3.661729   1.000000
     18          4.135528   1.000000
     19         10.546317   0.000000
     20         11.170100   0.000000
     21         11.572118   0.000000
     22         13.596075   0.000000
     23         15.150053   0.000000
     24         15.806849   0.000000
 
  0.4166667E+00  0.8333333E-01  0.0000000E+00  0.1190476E-01
      1         -9.797421   1.000000
      2         -9.630134   1.000000
      3         -8.138567   1.000000
      4         -8.107357   1.000000
      5         -8.006174   1.000000
      6         -7.974942   1.000000
      7         -7.938138   1.000000
      8         -7.929455   1.000000
      9         -7.858530   1.000000
     10         -7.823291   1.000000
     11         -6.783190   1.000000
     12         -6.107041   1.000000
     13         -1.067441   1.000000
     14          0.062908   1.000000
     15          1.051653   1.000000
     16          2.231738   1.000000
     17          3.120242   1.000000
     18          3.992688   1.000000
     19         10.712685   0.000000
     20         11.035663   0.000000
     21         11.228481   0.000000
     22         13.703341   0.000000
     23         15.276716   0.000000
     24         15.560867   0.000000
 
  0.1666667E+00  0.1666667E+00  0.0000000E+00  0.5952381E-02
      1        -10.082513   1.000000
      2         -9.665905   1.000000
      3         -8.137076   1.000000
      4         -8.114291   1.000000
      5         -8.048762   1.000000
      6         -8.024250   1.000000
      7         -7.976213   1.000000
      8         -7.918680   1.000000
      9         -7.905903   1.000000
     10         -7.862737   1.000000
     11         -7.703482   1.000000
     12         -6.141747   1.000000
     13         -0.762427   1.000000
     14          1.219795   1.000000
     15          1.574421   1.000000
     16          2.845200   1.000000
     17          4.221504   1.000000
     18          4.352535   1.000000
     19         10.101744   0.000000
     20         12.048441   0.000000
     21         12.503222   0.000000
     22         12.857941   0.000000
     23         15.215554   0.000000
     24         15.405891   0.000000
 
  0.2500000E+00  0.1666667E+00  0.0000000E+00  0.1190476E-01
      1         -9.904476   1.000000
      2         -9.642269   1.000000
      3         -8.146417   1.000000
      4         -8.087517   1.000000
      5         -8.014688   1.000000
      6         -7.989302   1.000000
      7         -7.979593   1.000000
      8         -7.929772   1.000000
      9         -7.886538   1.000000
     10         -7.848213   1.000000
     11         -7.343921   1.000000
     12         -5.992612   1.000000
     13         -0.539505   1.000000
     14          0.597042   1.000000
     15          1.026433   1.000000
     16          2.107554   1.000000
     17          3.761766   1.000000
     18          3.853696   1.000000
     19         10.917795   0.000000
     20         11.629755   0.000000
     21         12.209073   0.000000
     22         13.198856   0.000000
     23         14.849426   0.000000
     24         15.779539   0.000000
 
  0.3333333E+00  0.1666667E+00  0.0000000E+00  0.1190476E-01
      1         -9.790305   1.000000
      2         -9.633366   1.000000
      3         -8.156632   1.000000
      4         -8.076605   1.000000
      5         -7.989418   1.000000
      6         -7.975649   1.000000
      7         -7.956396   1.000000
      8         -7.937266   1.000000
      9         -7.874320   1.000000
     10         -7.841919   1.000000
     11         -6.876175   1.000000
     12         -5.984734   1.000000
     13         -0.746027   1.000000
     14          0.194111   1.000000
     15          1.084661   1.000000
     16          1.643441   1.000000
     17          3.256981   1.000000
     18          3.468389   1.000000
     19         11.055325   0.000000
     20         11.509214   0.000000
     21         11.975817   0.000000
     22         13.523542   0.000000
     23         14.849369   0.000000
     24         15.573314   0.000000
 
  0.4166667E+00  0.1666667E+00  0.0000000E+00  0.5952381E-02
      1         -9.750750   1.000000
      2         -9.633036   1.000000
      3         -8.160632   1.000000
      4         -8.074451   1.000000
      5         -7.982992   1.000000
      6         -7.973415   1.000000
      7         -7.941387   1.000000
      8         -7.934765   1.000000
      9         -7.873524   1.000000
     10         -7.839223   1.000000
     11         -6.565342   1.000000
     12         -6.099344   1.000000
     13         -0.900775   1.000000
     14          0.063037   1.000000
     15          1.041111   1.000000
     16          1.745011   1.000000
     17          2.899896   1.000000
     18          3.363755   1.000000
     19         10.855069   0.000000
     20         11.766640   0.000000
     21         11.826685   0.000000
     22         13.614207   0.000000
     23         14.952221   0.000000
     24         15.401980   0.000000
 
  0.2500000E+00  0.2500000E+00  0.0000000E+00  0.5952381E-02
      1         -9.786441   1.000000
      2         -9.635170   1.000000
      3         -8.165593   1.000000
      4         -8.046380   1.000000
      5         -7.993773   1.000000
      6         -7.980933   1.000000
      7         -7.967726   1.000000
      8         -7.936420   1.000000
      9         -7.879976   1.000000
     10         -7.853250   1.000000
     11         -6.912009   1.000000
     12         -5.934256   1.000000
     13         -0.471905   1.000000
     14          0.143619   1.000000
     15          1.211707   1.000000
     16          1.298946   1.000000
     17          3.163806   1.000000
     18          3.344071   1.000000
     19         10.998224   0.000000
     20         11.814432   0.000000
     21         12.998517   0.000000
     22         13.044505   0.000000
     23         14.771931   0.000000
     24         15.568827   0.000000
 
  0.3333333E+00  0.2500000E+00  0.0000000E+00  0.1190476E-01
      1         -9.717089   1.000000
      2         -9.641334   1.000000
      3         -8.177078   1.000000
      4         -8.027154   1.000000
      5         -7.972559   1.000000
      6         -7.967646   1.000000
      7         -7.959121   1.000000
      8         -7.942514   1.000000
      9         -7.890415   1.000000
     10         -7.854782   1.000000
     11         -6.489794   1.000000
     12         -6.027582   1.000000
     13         -0.517184   1.000000
     14          0.002019   1.000000
     15          0.621123   1.000000
     16          1.744351   1.000000
     17          2.763343   1.000000
     18          2.854767   1.000000
     19         10.598517   0.000000
     20         12.393492   0.000000
     21         12.933140   0.000000
     22         13.432823   0.000000
     23         14.841866   0.000000
     24         15.297007   0.000000
 
  0.3333333E+00  0.3333333E+00  0.0000000E+00  0.1984127E-02
      1         -9.667879   1.000000
      2         -9.667877   1.000000
      3         -8.184559   1.000000
      4         -7.982202   1.000000
      5         -7.982196   1.000000
      6         -7.967103   1.000000
      7         -7.951893   1.000000
      8         -7.951892   1.000000
      9         -7.905652   1.000000
     10         -7.860275   1.000000
     11         -6.189511   1.000000
     12         -6.189504   1.000000
     13         -0.089322   1.000000
     14         -0.089316   1.000000
     15          0.010109   1.000000
     16          2.287741   1.000000
     17          2.287745   1.000000
     18          2.539899   1.000000
     19         10.407765   0.000000
     20         12.959118   0.000000
     21         12.959123   0.000000
     22         13.636596   0.000000
     23         15.042670   0.000000
     24         15.042687   0.000000
 
  0.0000000E+00  0.0000000E+00  0.1428571E+00  0.1984127E-02
      1        -10.628754   1.000000
      2         -9.812965   1.000000
      3         -8.182307   1.000000
      4         -8.182305   1.000000
      5         -8.182150   1.000000
      6         -8.128334   1.000000
      7         -8.128329   1.000000
      8         -7.929997   1.000000
      9         -7.929997   1.000000
     10         -7.844225   1.000000
     11         -7.844224   1.000000
     12         -6.819943   1.000000
     13         -1.398432   1.000000
     14          4.258440   1.000000
     15          4.258908   1.000000
     16          4.563329   1.000000
     17          5.183331   1.000000
     18          5.183885   1.000000
     19          7.628073   0.000000
     20          9.462615   0.000000
     21         14.249318   0.000000
     22         15.096565   0.000000
     23         15.096584   0.000000
     24         15.408616   0.000000
 
  0.8333333E-01  0.9923441E-17  0.1428571E+00  0.1190476E-01
      1        -10.563407   1.000000
      2         -9.793627   1.000000
      3         -8.185256   1.000000
      4         -8.172261   1.000000
      5         -8.151236   1.000000
      6         -8.120584   1.000000
      7         -8.115142   1.000000
      8         -7.933881   1.000000
      9         -7.930880   1.000000
     10         -7.856891   1.000000
     11         -7.842975   1.000000
     12         -6.768099   1.000000
     13         -1.311538   1.000000
     14          3.748245   1.000000
     15          4.115949   1.000000
     16          4.195262   1.000000
     17          5.014278   1.000000
     18          5.115717   1.000000
     19          8.048948   0.000000
     20          9.896606   0.000000
     21         14.037057   0.000000
     22         14.573235   0.000000
     23         15.278572   0.000000
     24         15.502837   0.000000
 
  0.1666667E+00  0.8675338E-17  0.1428571E+00  0.1190476E-01
      1        -10.386171   1.000000
      2         -9.745818   1.000000
      3         -8.166314   1.000000
      4         -8.147098   1.000000
      5         -8.106883   1.000000
      6         -8.078721   1.000000
      7         -8.067124   1.000000
      8         -7.943096   1.000000
      9         -7.929286   1.000000
     10         -7.880138   1.000000
     11         -7.839650   1.000000
     12         -6.621782   1.000000
     13         -1.066815   1.000000
     14          2.607368   1.000000
     15          3.267967   1.000000
     16          3.763340   1.000000
     17          4.800547   1.000000
     18          4.927395   1.000000
     19          8.817328   0.000000
     20         10.736642   0.000000
     21         13.284109   0.000000
     22         13.946721   0.000000
     23         15.429438   0.000000
     24         15.693325   0.000000
 
  0.2500000E+00  0.2963162E-16  0.1428571E+00  0.1190476E-01
      1        -10.155113   1.000000
      2         -9.693002   1.000000
      3         -8.144827   1.000000
      4         -8.121199   1.000000
      5         -8.072266   1.000000
      6         -8.029694   1.000000
      7         -7.974992   1.000000
      8         -7.946941   1.000000
      9         -7.916816   1.000000
     10         -7.835185   1.000000
     11         -7.816743   1.000000
     12         -6.409244   1.000000
     13         -0.751669   1.000000
     14          1.398268   1.000000
     15          2.182682   1.000000
     16          3.331508   1.000000
     17          4.503393   1.000000
     18          4.661100   1.000000
     19          9.471218   0.000000
     20         11.168472   0.000000
     21         12.550569   0.000000
     22         13.594129   0.000000
     23         15.237650   0.000000
     24         15.980525   0.000000
 
  0.3333333E+00  0.3955506E-16  0.1428571E+00  0.1190476E-01
      1         -9.949821   1.000000
      2         -9.653781   1.000000
      3         -8.135300   1.000000
      4         -8.106593   1.000000
      5         -8.044442   1.000000
      6         -7.982401   1.000000
      7         -7.979426   1.000000
      8         -7.931783   1.000000
      9         -7.889878   1.000000
     10         -7.829256   1.000000
     11         -7.489809   1.000000
     12         -6.198911   1.000000
     13         -0.713118   1.000000
     14          0.613455   1.000000
     15          1.269813   1.000000
     16          2.945596   1.000000
     17          4.066246   1.000000
     18          4.397492   1.000000
     19          9.820577   0.000000
     20         10.939124   0.000000
     21         12.168530   0.000000
     22         13.482546   0.000000
     23         15.333114   0.000000
     24         15.957431   0.000000
 
  0.4166667E+00  0.8278527E-16  0.1428571E+00  0.1190476E-01
      1         -9.823549   1.000000
      2         -9.633704   1.000000
      3         -8.137394   1.000000
      4         -8.102432   1.000000
      5         -8.025803   1.000000
      6         -7.994021   1.000000
      7         -7.950638   1.000000
      8         -7.909533   1.000000
      9         -7.861225   1.000000
     10         -7.822821   1.000000
     11         -7.019567   1.000000
     12         -6.129089   1.000000
     13         -1.120906   1.000000
     14          0.052463   1.000000
     15          1.208457   1.000000
     16          2.681609   1.000000
     17          3.560228   1.000000
     18          4.210112   1.000000
     19          9.938366   0.000000
     20         10.530001   0.000000
     21         12.082678   0.000000
     22         13.434150   0.000000
     23         15.478647   0.000000
     24         15.832500   0.000000
 
  0.5000000E+00  0.5926324E-16  0.1428571E+00  0.5952381E-02
      1         -9.782961   1.000000
      2         -9.628230   1.000000
      3         -8.140059   1.000000
      4         -8.101992   1.000000
      5         -8.015787   1.000000
      6         -8.002874   1.000000
      7         -7.939967   1.000000
      8         -7.899626   1.000000
      9         -7.848919   1.000000
     10         -7.819819   1.000000
     11         -6.700048   1.000000
     12         -6.219227   1.000000
     13         -1.308011   1.000000
     14         -0.259184   1.000000
     15          1.412138   1.000000
     16          2.588244   1.000000
     17          3.283032   1.000000
     18          4.142394   1.000000
     19         10.009702   0.000000
     20         10.301413   0.000000
     21         12.076052   0.000000
     22         13.444852   0.000000
     23         15.530849   0.000000
     24         15.775518   0.000000
 
  0.8333333E-01  0.8333333E-01  0.1428571E+00  0.1190476E-01
      1        -10.442005   1.000000
      2         -9.760228   1.000000
      3         -8.171842   1.000000
      4         -8.155450   1.000000
      5         -8.112659   1.000000
      6         -8.107475   1.000000
      7         -8.078147   1.000000
      8         -7.938178   1.000000
      9         -7.932221   1.000000
     10         -7.876403   1.000000
     11         -7.839908   1.000000
     12         -6.668915   1.000000
     13         -1.145211   1.000000
     14          3.034407   1.000000
     15          3.385634   1.000000
     16          3.946131   1.000000
     17          4.878977   1.000000
     18          4.929998   1.000000
     19          8.625491   0.000000
     20         10.552535   0.000000
     21         13.648734   0.000000
     22         13.888042   0.000000
     23         15.527346   0.000000
     24         15.644453   0.000000
 
  0.1666667E+00  0.8333333E-01  0.1428571E+00  0.2380952E-01
      1        -10.237412   1.000000
      2         -9.710584   1.000000
      3         -8.146958   1.000000
      4         -8.133663   1.000000
      5         -8.082618   1.000000
      6         -8.062669   1.000000
      7         -7.987118   1.000000
      8         -7.937216   1.000000
      9         -7.922123   1.000000
     10         -7.887056   1.000000
     11         -7.826104   1.000000
     12         -6.487435   1.000000
     13         -0.855909   1.000000
     14          1.960870   1.000000
     15          2.457918   1.000000
     16          3.437200   1.000000
     17          4.604548   1.000000
     18          4.670805   1.000000
     19          9.356175   0.000000
     20         11.325497   0.000000
     21         12.865532   0.000000
     22         13.428303   0.000000
     23         15.242124   0.000000
     24         15.803291   0.000000
 
  0.2500000E+00  0.8333333E-01  0.1428571E+00  0.2380952E-01
      1        -10.020423   1.000000
      2         -9.666560   1.000000
      3         -8.128814   1.000000
      4         -8.119374   1.000000
      5         -8.051800   1.000000
      6         -8.011980   1.000000
      7         -7.968003   1.000000
      8         -7.938810   1.000000
      9         -7.898592   1.000000
     10         -7.844593   1.000000
     11         -7.633941   1.000000
     12         -6.266790   1.000000
     13         -0.625596   1.000000
     14          0.965311   1.000000
     15          1.575453   1.000000
     16          2.887251   1.000000
     17          4.240416   1.000000
     18          4.345892   1.000000
     19          9.933026   0.000000
     20         11.480362   0.000000
     21         12.225743   0.000000
     22         13.419918   0.000000
     23         15.003929   0.000000
     24         15.860185   0.000000
 
  0.3333333E+00  0.8333333E-01  0.1428571E+00  0.2380952E-01
      1         -9.859202   1.000000
      2         -9.639622   1.000000
      3         -8.129753   1.000000
      4         -8.109883   1.000000
      5         -8.028173   1.000000
      6         -7.980182   1.000000
      7         -7.968477   1.000000
      8         -7.924291   1.000000
      9         -7.873463   1.000000
     10         -7.834695   1.000000
     11         -7.214285   1.000000
     12         -6.109954   1.000000
     13         -0.859440   1.000000
     14          0.348255   1.000000
     15          1.168140   1.000000
     16          2.486589   1.000000
     17          3.787920   1.000000
     18          4.042883   1.000000
     19         10.185855   0.000000
     20         11.117529   0.000000
     21         12.026936   0.000000
     22         13.436727   0.000000
     23         15.130151   0.000000
     24         15.688957   0.000000
 
  0.4166667E+00  0.8333333E-01  0.1428571E+00  0.2380952E-01
      1         -9.779602   1.000000
      2         -9.629154   1.000000
      3         -8.135611   1.000000
      4         -8.106068   1.000000
      5         -8.014707   1.000000
      6         -7.990611   1.000000
      7         -7.946623   1.000000
      8         -7.904809   1.000000
      9         -7.857632   1.000000
     10         -7.828825   1.000000
     11         -6.760399   1.000000
     12         -6.148536   1.000000
     13         -1.191783   1.000000
     14         -0.149858   1.000000
     15          1.367079   1.000000
     16          2.331721   1.000000
     17          3.332685   1.000000
     18          3.886043   1.000000
     19         10.233602   0.000000
     20         10.800623   0.000000
     21         12.060370   0.000000
     22         13.417216   0.000000
     23         15.278113   0.000000
     24         15.485887   0.000000
 
  0.1666667E+00  0.1666667E+00  0.1428571E+00  0.1190476E-01
      1        -10.047259   1.000000
      2         -9.671613   1.000000
      3         -8.130354   1.000000
      4         -8.117266   1.000000
      5         -8.053357   1.000000
      6         -8.037122   1.000000
      7         -7.962825   1.000000