       N       E                     dE             d eps       ncg     rms          rms(c)
DAV:   1     0.241500163107E+03    0.24150E+03   -0.15663E+04  3960   0.240E+03
DAV:   2    -0.146601280570E+00   -0.24165E+03   -0.23033E+03  4080   0.459E+02
DAV:   3    -0.275453582706E+02   -0.27399E+02   -0.27199E+02  4296   0.130E+02
DAV:   4    -0.282814314277E+02   -0.73607E+00   -0.73519E+00  4744   0.243E+01
DAV:   5    -0.282925885740E+02   -0.11157E-01   -0.11155E-01  4296   0.268E+00    0.109E+01
DAV:   6    -0.242007076099E+02    0.40919E+01   -0.12637E+01  6248   0.525E+01    0.316E+00
DAV:   7    -0.243045889279E+02   -0.10388E+00   -0.15100E+00  3952   0.928E+00    0.282E+00
DAV:   8    -0.243010392791E+02    0.35496E-02   -0.17119E-01  5904   0.607E+00    0.723E-01
DAV:   9    -0.242863953692E+02    0.14644E-01   -0.65694E-02  6256   0.432E+00    0.339E-01
DAV:  10    -0.242871419591E+02   -0.74659E-03   -0.36347E-03  4096   0.530E-01    0.755E-02
DAV:  11    -0.242870210562E+02    0.12090E-03   -0.11003E-03  5448   0.602E-01    0.290E-02
DAV:  12    -0.242870313010E+02   -0.10245E-04   -0.11487E-04  3920   0.811E-02    0.145E-02
DAV:  13    -0.242870325895E+02   -0.12885E-05   -0.39129E-05  5680   0.856E-02    0.154E-02
DAV:  14    -0.242870323311E+02    0.25843E-06   -0.67418E-06  4952   0.252E-02    0.579E-03
DAV:  15    -0.242870323704E+02   -0.39323E-07   -0.68147E-07  4832   0.528E-03    0.282E-03
DAV:  16    -0.242870323611E+02    0.93032E-08   -0.23331E-08  5760   0.269E-03    0.237E-03
DAV:  17    -0.242870323663E+02   -0.52050E-08   -0.20876E-08  5440   0.981E-04    0.205E-03
DAV:  18    -0.242870323697E+02   -0.34461E-08   -0.14667E-09  3136   0.310E-04    0.205E-03
DAV:  19    -0.242870323707E+02   -0.96588E-09   -0.14786E-10  2280   0.120E-04
   1 F= -.24287032E+02 E0= -.24287032E+02  d E =-.242870E+02
       N       E                     dE             d eps       ncg     rms          rms(c)
DAV:   1    -0.246839691465E+02   -0.39694E+00   -0.69503E+00  4448   0.558E+01    0.395E+00
DAV:   2    -0.243846104253E+02    0.29936E+00   -0.88382E-01  4656   0.207E+01    0.193E+00
DAV:   3    -0.242905233787E+02    0.94087E-01   -0.20568E-01  5504   0.102E+01    0.378E-01
DAV:   4    -0.242889893836E+02    0.15340E-02   -0.49169E-02  3744   0.171E+00    0.337E-01
DAV:   5    -0.242864588337E+02    0.25305E-02   -0.19901E-03  5736   0.405E-01    0.225E-01
DAV:   6    -0.242845577972E+02    0.19010E-02   -0.19440E-03  4592   0.675E-01    0.226E-02
DAV:   7    -0.242845529554E+02    0.48418E-05   -0.15786E-04  4944   0.165E-01    0.137E-02
DAV:   8    -0.242845544482E+02   -0.14929E-05   -0.19860E-05  4904   0.335E-02    0.466E-03
DAV:   9    -0.242845541540E+02    0.29427E-06   -0.15176E-06  4384   0.178E-02    0.482E-03
DAV:  10    -0.242845541729E+02   -0.18980E-07   -0.31359E-07  5608   0.433E-03    0.285E-03
DAV:  11    -0.242845542286E+02   -0.55697E-07   -0.30899E-08  4648   0.209E-03    0.222E-03
DAV:  12    -0.242845542266E+02    0.20509E-08   -0.21055E-09  3112   0.836E-04    0.219E-03
DAV:  13    -0.242845542241E+02    0.25384E-08   -0.86687E-10  2352   0.248E-04    0.218E-03
DAV:  14    -0.242845542253E+02   -0.12424E-08   -0.18091E-10  2048   0.219E-04    0.218E-03
DAV:  15    -0.242845542252E+02    0.10186E-09   -0.83799E-11  2064   0.135E-04
   2 F= -.24284554E+02 E0= -.24284554E+02  d E =0.247815E-02
       N       E                     dE             d eps       ncg     rms          rms(c)
DAV:   1    -0.244146059824E+02   -0.13005E+00   -0.18783E+00  4632   0.275E+01    0.215E+00
DAV:   2    -0.243254157181E+02    0.89190E-01   -0.25012E-01  4576   0.114E+01    0.101E+00
DAV:   3    -0.243002533109E+02    0.25162E-01   -0.50011E-02  5704   0.474E+00    0.217E-01
DAV:   4    -0.242994876981E+02    0.76561E-03   -0.10756E-02  3736   0.819E-01    0.157E-01
DAV:   5    -0.242984669155E+02    0.10208E-02   -0.75816E-04  5688   0.266E-01    0.623E-02
DAV:   6    -0.242982603857E+02    0.20653E-03   -0.28251E-04  4392   0.221E-01    0.177E-02
DAV:   7    -0.242982600841E+02    0.30159E-06   -0.13037E-05  4800   0.390E-02    0.844E-03
DAV:   8    -0.242982599918E+02    0.92319E-07   -0.20360E-06  4496   0.189E-02    0.245E-03
DAV:   9    -0.242982599236E+02    0.68243E-07   -0.33640E-07  5264   0.125E-02    0.217E-03
DAV:  10    -0.242982599333E+02   -0.97207E-08   -0.55300E-08  4608   0.179E-03    0.213E-03
DAV:  11    -0.242982599332E+02    0.69122E-10   -0.58692E-09  4656   0.997E-04
   3 F= -.24298260E+02 E0= -.24298260E+02  d E =-.112276E-01
       N       E                     dE             d eps       ncg     rms          rms(c)
DAV:   1    -0.242982633424E+02   -0.34091E-05   -0.54599E-05  4592   0.151E-01    0.116E-02
DAV:   2    -0.242982608477E+02    0.24947E-05   -0.71740E-06  4632   0.609E-02    0.585E-03
DAV:   3    -0.242982602083E+02    0.63941E-06   -0.14793E-06  5680   0.268E-02    0.239E-03
DAV:   4    -0.242982601984E+02    0.98553E-08   -0.33385E-07  3744   0.453E-03    0.229E-03
DAV:   5    -0.242982601791E+02    0.19309E-07   -0.16689E-08  5704   0.122E-03    0.216E-03
DAV:   6    -0.242982601807E+02   -0.16189E-08   -0.10403E-08  4216   0.139E-03    0.211E-03
DAV:   7    -0.242982601808E+02   -0.47294E-10   -0.53469E-10  2176   0.308E-04
   4 F= -.24298260E+02 E0= -.24298260E+02  d E =-.112278E-01
       N       E                     dE             d eps       ncg     rms          rms(c)
DAV:   1    -0.242982604156E+02   -0.23485E-06   -0.30318E-06  4528   0.358E-02    0.343E-03
DAV:   2    -0.242982602688E+02    0.14675E-06   -0.40462E-07  4632   0.144E-02    0.247E-03
DAV:   3    -0.242982602025E+02    0.66352E-07   -0.82737E-08  5680   0.631E-03    0.213E-03
DAV:   4    -0.242982601993E+02    0.31459E-08   -0.18634E-08  3744   0.107E-03    0.212E-03
DAV:   5    -0.242982601967E+02    0.26148E-08   -0.71339E-10  2056   0.289E-04    0.211E-03
DAV:   6    -0.242982601936E+02    0.31132E-08   -0.77339E-10  1888   0.336E-04    0.211E-03
DAV:   7    -0.242982601935E+02    0.14461E-09   -0.16051E-10  1848   0.143E-04
   5 F= -.24298260E+02 E0= -.24298260E+02  d E =-.112278E-01
       N       E                     dE             d eps       ncg     rms          rms(c)
DAV:   1    -0.242982978466E+02   -0.37653E-04   -0.13640E-02  3648   0.928E-01    0.382E-02
DAV:   2    -0.242983183641E+02   -0.20518E-04   -0.48272E-04  4464   0.260E-01    0.196E-02
DAV:   3    -0.242983131606E+02    0.52035E-05   -0.35967E-05  5056   0.673E-02    0.610E-03
DAV:   4    -0.242983127271E+02    0.43348E-06   -0.42769E-06  4936   0.168E-02    0.266E-03
DAV:   5    -0.242983127231E+02    0.39972E-08   -0.31856E-07  4120   0.455E-03    0.235E-03
DAV:   6    -0.242983127063E+02    0.16764E-07   -0.17346E-08  4784   0.118E-03    0.212E-03
DAV:   7    -0.242983127009E+02    0.53924E-08   -0.34351E-09  4088   0.464E-04    0.211E-03
DAV:   8    -0.242983127006E+02    0.32560E-09   -0.26605E-10  2168   0.137E-04
   6 F= -.24298313E+02 E0= -.24298313E+02  d E =-.525072E-04
       N       E                     dE             d eps       ncg     rms          rms(c)
DAV:   1    -0.242983137871E+02   -0.10862E-05   -0.75054E-04  3648   0.218E-01    0.917E-03
DAV:   2    -0.242983149166E+02   -0.11295E-05   -0.26555E-05  4472   0.610E-02    0.503E-03
DAV:   3    -0.242983146819E+02    0.23467E-06   -0.19892E-06  5040   0.158E-02    0.249E-03
DAV:   4    -0.242983146699E+02    0.12010E-07   -0.23771E-07  4872   0.394E-03    0.214E-03
DAV:   5    -0.242983146708E+02   -0.87039E-09   -0.17163E-08  4120   0.105E-03    0.212E-03
DAV:   6    -0.242983146663E+02    0.44547E-08   -0.86345E-10  2600   0.294E-04    0.211E-03
DAV:   7    -0.242983146654E+02    0.94406E-09   -0.21279E-10  2104   0.157E-04
   7 F= -.24298315E+02 E0= -.24298315E+02  d E =-.544719E-04
       N       E                     dE             d eps       ncg     rms          rms(c)
DAV:   1    -0.242984302395E+02   -0.11557E-03   -0.31470E-03  4464   0.570E-01    0.660E-02
DAV:   2    -0.242983626673E+02    0.67572E-04   -0.27368E-04  4680   0.289E-01    0.371E-02
DAV:   3    -0.242983249851E+02    0.37682E-04   -0.61173E-05  5856   0.105E-01    0.706E-03
DAV:   4    -0.242983251153E+02   -0.13026E-06   -0.12385E-05  3792   0.305E-02    0.293E-03
DAV:   5    -0.242983250155E+02    0.99795E-07   -0.93322E-07  4536   0.138E-02    0.235E-03
DAV:   6    -0.242983249962E+02    0.19375E-07   -0.11019E-07  4400   0.376E-03    0.215E-03
DAV:   7    -0.242983249997E+02   -0.35116E-08   -0.18319E-08  4480   0.127E-03    0.213E-03
DAV:   8    -0.242983250026E+02   -0.29659E-08   -0.18119E-09  3272   0.686E-04    0.212E-03
DAV:   9    -0.242983250004E+02    0.22455E-08   -0.76318E-10  2024   0.245E-04    0.212E-03
DAV:  10    -0.242983250005E+02   -0.11369E-09   -0.19254E-10  1992   0.136E-04
   8 F= -.24298325E+02 E0= -.24298325E+02  d E =-.103351E-04
