 vasp.6.3.1 04May22 (build Jun 07 2022 20:23:04) complex                        
  
 executed on             LinuxIFC date 2024.03.28  16:28:01
 running on   32 total cores
 distrk:  each k-point on    8 cores,    4 groups
 distr:  one band on NCORE=   1 cores,    8 groups


--------------------------------------------------------------------------------------------------------


 INCAR:
   ALGO = Normal
   EDIFF = 1e-09
   EDIFFG = -0.005
   ENCUT = 400.0
   IBRION = 2
   ISIF = 3
   ISMEAR = 0
   KPAR = 4
   LASPH = True
   LCHARG = False
   LORBIT = 10
   LREAL = False
   LWAVE = False
   NELM = 100
   NSW = 20
   PREC = Normal
   SIGMA = 0.1

 POTCAR:    PAW_PBE Ga_d 06Jul2010                
 POTCAR:    PAW_PBE N 08Apr2002                   
 -----------------------------------------------------------------------------
|                                                                             |
|           W    W    AA    RRRRR   N    N  II  N    N   GGGG   !!!           |
|           W    W   A  A   R    R  NN   N  II  NN   N  G    G  !!!           |
|           W    W  A    A  R    R  N N  N  II  N N  N  G       !!!           |
|           W WW W  AAAAAA  RRRRR   N  N N  II  N  N N  G  GGG   !            |
|           WW  WW  A    A  R   R   N   NN  II  N   NN  G    G                |
|           W    W  A    A  R    R  N    N  II  N    N   GGGG   !!!           |
|                                                                             |
|     For optimal performance we recommend to set                             |
|       NCORE = 2 up to number-of-cores-per-socket                            |
|     NCORE specifies how many cores store one orbital (NPAR=cpu/NCORE).      |
|     This setting can greatly improve the performance of VASP for DFT.       |
|     The default, NCORE=1 might be grossly inefficient on modern             |
|     multi-core architectures or massively parallel machines. Do your        |
|     own testing! More info at https://www.vasp.at/wiki/index.php/NCORE      |
|     Unfortunately you need to use the default for GW and RPA                |
|     calculations (for HF NCORE is supported but not extensively tested      |
|     yet).                                                                   |
|                                                                             |
 -----------------------------------------------------------------------------

 POTCAR:    PAW_PBE Ga_d 06Jul2010                
   SHA256 =  a60ddf36e14f00ea098d9e3914b3745f1b7105e68786148f49ae384e44b4226c Ga_d/POTCAR           
   COPYR  = (c) Copyright 06Jul2010 Georg Kresse                                                    
   COPYR  = This file is part of the software VASP. Any use, copying, and all other rights are regul
   COPYR  = If you do not have a valid VASP license, you may not use, copy or distribute this file. 
   VRHFIN =Ga: s2p1                                                                                 
   LEXCH  = PE                                                                                      
   EATOM  =  2148.8298 eV,  157.9345 Ry                                                             
                                                                                                    
   TITEL  = PAW_PBE Ga_d 06Jul2010                                                                  
   LULTRA =        F    use ultrasoft PP ?                                                          
   IUNSCR =        1    unscreen: 0-lin 1-nonlin 2-no                                               
   RPACOR =    1.700    partial core radius                                                         
   POMASS =   69.723; ZVAL   =   13.000    mass and valenz                                          
   RCORE  =    2.300    outmost cutoff radius                                                       
   RWIGS  =    2.300; RWIGS  =    1.217    wigner-seitz radius (au A)                               
   ENMAX  =  282.691; ENMIN  =  212.018 eV                                                          
   ICORE  =        3    local potential                                                             
   LCOR   =        T    correct aug charges                                                         
   LPAW   =        T    paw PP                                                                      
   EAUG   =  490.690                                                                                
   DEXC   =    0.000                                                                                
   RMAX   =    2.341    core radius for proj-oper                                                   
   RAUG   =    1.300    factor for augmentation sphere                                              
   RDEP   =    2.413    radius for radial grids                                                     
   RDEPT  =    1.856    core radius for aug-charge                                                  
                                                                                                    
   Atomic configuration                                                                             
    9 entries                                                                                       
     n  l   j            E        occ.                                                              
     1  0  0.50    -10228.7831   2.0000                                                             
     2  0  0.50     -1262.1604   2.0000                                                             
     2  1  1.50     -1098.6333   6.0000                                                             
     3  0  0.50      -148.1110   2.0000                                                             
     3  1  1.50       -98.8436   6.0000                                                             
     3  2  2.50       -19.1549  10.0000                                                             
     4  0  0.50        -8.9483   2.0000                                                             
     4  1  0.50        -2.5791   1.0000                                                             
     4  3  2.50        -2.7416   0.0000                                                             
   Description                                                                                      
     l       E           TYP  RCUT    TYP  RCUT                                                     
     2    -19.1549037     23  2.300                                                                 
     2     -5.4423304     23  2.300                                                                 
     0     -8.9483111     23  2.300                                                                 
     0     68.0291300     23  2.300                                                                 
     1     -2.5790802     23  2.100                                                                 
     1     81.6349560     23  2.300                                                                 
     3      6.8029130     23  2.300                                                                 
  local pseudopotential read in
  partial core-charges read in
  partial kinetic energy density read in
  atomic valenz-charges read in
  non local Contribution for L=           2  read in
    real space projection operators read in
  non local Contribution for L=           2  read in
    real space projection operators read in
  non local Contribution for L=           0  read in
    real space projection operators read in
  non local Contribution for L=           0  read in
    real space projection operators read in
  non local Contribution for L=           1  read in
    real space projection operators read in
  non local Contribution for L=           1  read in
    real space projection operators read in
    PAW grid and wavefunctions read in
 
   number of l-projection  operators is LMAX  =           6
   number of lm-projection operators is LMMAX =          18
 
 POTCAR:    PAW_PBE N 08Apr2002                   
   SHA256 =  e053789ff3a61a86a1b75d8a110fcc91f86041011e7b0817c7c99e4e8a6349d7 N/POTCAR              
   COPYR  = (c) Copyright 08Apr2002 Georg Kresse                                                    
   COPYR  = This file is part of the software VASP. Any use, copying, and all other rights are regul
   COPYR  = If you do not have a valid VASP license, you may not use, copy or distribute this file. 
   VRHFIN =N: s2p3                                                                                  
   LEXCH  = PE                                                                                      
   EATOM  =   264.5486 eV,   19.4438 Ry                                                             
                                                                                                    
   TITEL  = PAW_PBE N 08Apr2002                                                                     
   LULTRA =        F    use ultrasoft PP ?                                                          
   IUNSCR =        1    unscreen: 0-lin 1-nonlin 2-no                                               
   RPACOR =    1.200    partial core radius                                                         
   POMASS =   14.001; ZVAL   =    5.000    mass and valenz                                          
   RCORE  =    1.500    outmost cutoff radius                                                       
   RWIGS  =    1.400; RWIGS  =    0.741    wigner-seitz radius (au A)                               
   ENMAX  =  400.000; ENMIN  =  300.000 eV                                                          
   ICORE  =        2    local potential                                                             
   LCOR   =        T    correct aug charges                                                         
   LPAW   =        T    paw PP                                                                      
   EAUG   =  627.112                                                                                
   DEXC   =    0.000                                                                                
   RMAX   =    1.529    core radius for proj-oper                                                   
   RAUG   =    1.300    factor for augmentation sphere                                              
   RDEP   =    1.514    radius for radial grids                                                     
   RDEPT  =    1.338    core radius for aug-charge                                                  
                                                                                                    
   Atomic configuration                                                                             
    4 entries                                                                                       
     n  l   j            E        occ.                                                              
     1  0  0.50      -384.7179   2.0000                                                             
     2  0  0.50       -18.5828   2.0000                                                             
     2  1  0.50        -7.0898   3.0000                                                             
     3  2  1.50        -6.8029   0.0000                                                             
   Description                                                                                      
     l       E           TYP  RCUT    TYP  RCUT                                                     
     0    -18.5828119     23  1.200                                                                 
     0    -13.5018863     23  1.200                                                                 
     1     -7.0897853     23  1.500                                                                 
     1      9.5240782     23  1.500                                                                 
     2     -6.8029130      7  1.500                                                                 
  local pseudopotential read in
  partial core-charges read in
  partial kinetic energy density read in
  atomic valenz-charges read in
  non local Contribution for L=           0  read in
    real space projection operators read in
  non local Contribution for L=           0  read in
    real space projection operators read in
  non local Contribution for L=           1  read in
    real space projection operators read in
  non local Contribution for L=           1  read in
    real space projection operators read in
    PAW grid and wavefunctions read in
 
   number of l-projection  operators is LMAX  =           4
   number of lm-projection operators is LMMAX =           8
 
  PAW_PBE Ga_d 06Jul2010                :
 energy of atom  1       EATOM=-2148.8298
 kinetic energy error for atom=    0.0102 (will be added to EATOM!!)
  PAW_PBE N 08Apr2002                   :
 energy of atom  2       EATOM= -264.5486
 kinetic energy error for atom=    0.0736 (will be added to EATOM!!)
 
 
 POSCAR: Ga2 N2
  positions in direct lattice
  No initial velocities read in
 exchange correlation table for  LEXCH =        8
   RHO(1)=    0.500       N(1)  =     2000
   RHO(2)=  100.500       N(2)  =     4000

 VTST: version 4.2, (08/11/21)

 CHAIN: initializing optimizer
 
 OPT: Using VASP Conjugate-Gradient optimizer
 CHAIN: Read ICHAIN            0
 
 POSCAR: Ga2 N2
  positions in direct lattice
  No initial velocities read in
 


--------------------------------------------------------------------------------------------------------


 ion  position               nearest neighbor table
   1  0.333  0.667  0.000-   3 1.94   4 1.95   4 1.95   4 1.95
   2  0.667  0.333  0.500-   4 1.94   3 1.95   3 1.95   3 1.95
   3  0.333  0.667  0.375-   1 1.94   2 1.95   2 1.95   2 1.95
   4  0.667  0.333  0.875-   2 1.94   1 1.95   1 1.95   1 1.95
 
  LATTYP: Found a hexagonal cell.
 ALAT       =     3.1800000668
 C/A-ratio  =     1.6245282330
  
  Lattice vectors:
  
 A1 = (   3.1800000668,   0.0000000000,   0.0000000000)
 A2 = (  -1.5900000334,   2.7539608419,   0.0000000000)
 A3 = (   0.0000000000,   0.0000000000,   5.1659998894)


Analysis of symmetry for initial positions (statically):
=====================================================================
 Subroutine PRICEL returns:
 Original cell was already a primitive cell.
 

 Routine SETGRP: Setting up the symmetry group for a 
 hexagonal supercell.


 Subroutine GETGRP returns: Found 12 space group operations
 (whereof  6 operations were pure point group operations)
 out of a pool of 24 trial point group operations.


The static configuration has the point symmetry C_3v.
 The point group associated with its full space group is C_6v.


Analysis of symmetry for dynamics (positions and initial velocities):
=====================================================================
 Subroutine PRICEL returns:
 Original cell was already a primitive cell.
 

 Routine SETGRP: Setting up the symmetry group for a 
 hexagonal supercell.


 Subroutine GETGRP returns: Found 12 space group operations
 (whereof  6 operations were pure point group operations)
 out of a pool of 24 trial point group operations.


The dynamic configuration has the point symmetry C_3v.
 The point group associated with its full space group is C_6v.


 Subroutine INISYM returns: Found 12 space group operations
 (whereof  6 operations are pure point group operations),
 and found     1 'primitive' translations


----------------------------------------------------------------------------------------

                                     Primitive cell                                     

  volume of cell :      45.2417

  direct lattice vectors                    reciprocal lattice vectors
     3.180000067  0.000000000  0.000000000     0.314465402  0.181556685  0.000000000
    -1.590000033  2.753960842  0.000000000     0.000000000  0.363113369  0.000000000
     0.000000000  0.000000000  5.165999889     0.000000000  0.000000000  0.193573368

  length of vectors
     3.180000067  3.180000067  5.165999889     0.363113369  0.363113369  0.193573368

  position of ions in fractional coordinates (direct lattice)
     0.333333333  0.666666667  0.000000000
     0.666666667  0.333333333  0.500000000
     0.333333333  0.666666667  0.375000000
     0.666666667  0.333333333  0.875000000

  ion indices of the primitive-cell ions
   primitive index   ion index
                 1           1
                 2           2
                 3           3
                 4           4

----------------------------------------------------------------------------------------

 
 
 KPOINTS: Num irrep kpoints: 76                   

Automatic generation of k-mesh.
 Grid dimensions read from file:
 generate k-points for:   12   12    7

 Generating k-lattice:

  Cartesian coordinates                     Fractional coordinates (reciprocal lattice)
     0.026205450  0.015129724  0.000000000     0.083333333 -0.000000000  0.000000000
     0.000000000  0.030259447  0.000000000     0.000000000  0.083333333  0.000000000
     0.000000000  0.000000000  0.027653338     0.000000000  0.000000000  0.142857143

  Length of vectors
     0.030259447  0.030259447  0.027653338

  Shift w.r.t. Gamma in fractional coordinates (k-lattice)
     0.000000000  0.000000000  0.000000000

 
 Subroutine IBZKPT returns following result:
 ===========================================
 
 Found     76 irreducible k-points:
 
 Following reciprocal coordinates:
            Coordinates               Weight
  0.000000  0.000000  0.000000      1.000000
  0.083333  0.000000  0.000000      6.000000
  0.166667  0.000000  0.000000      6.000000
  0.250000  0.000000  0.000000      6.000000
  0.333333  0.000000  0.000000      6.000000
  0.416667  0.000000  0.000000      6.000000
  0.500000  0.000000  0.000000      3.000000
  0.083333  0.083333  0.000000      6.000000
  0.166667  0.083333  0.000000     12.000000
  0.250000  0.083333  0.000000     12.000000
  0.333333  0.083333  0.000000     12.000000
  0.416667  0.083333  0.000000     12.000000
  0.166667  0.166667  0.000000      6.000000
  0.250000  0.166667  0.000000     12.000000
  0.333333  0.166667  0.000000     12.000000
  0.416667  0.166667  0.000000      6.000000
  0.250000  0.250000  0.000000      6.000000
  0.333333  0.250000  0.000000     12.000000
  0.333333  0.333333  0.000000      2.000000
  0.000000  0.000000  0.142857      2.000000
  0.083333  0.000000  0.142857     12.000000
  0.166667  0.000000  0.142857     12.000000
  0.250000  0.000000  0.142857     12.000000
  0.333333  0.000000  0.142857     12.000000
  0.416667  0.000000  0.142857     12.000000
  0.500000  0.000000  0.142857      6.000000
  0.083333  0.083333  0.142857     12.000000
  0.166667  0.083333  0.142857     24.000000
  0.250000  0.083333  0.142857     24.000000
  0.333333  0.083333  0.142857     24.000000
  0.416667  0.083333  0.142857     24.000000
  0.166667  0.166667  0.142857     12.000000
  0.250000  0.166667  0.142857     24.000000
  0.333333  0.166667  0.142857     24.000000
  0.416667  0.166667  0.142857     12.000000
  0.250000  0.250000  0.142857     12.000000
  0.333333  0.250000  0.142857     24.000000
  0.333333  0.333333  0.142857      4.000000
  0.000000  0.000000  0.285714      2.000000
  0.083333  0.000000  0.285714     12.000000
  0.166667  0.000000  0.285714     12.000000
  0.250000  0.000000  0.285714     12.000000
  0.333333  0.000000  0.285714     12.000000
  0.416667  0.000000  0.285714     12.000000
  0.500000  0.000000  0.285714      6.000000
  0.083333  0.083333  0.285714     12.000000
  0.166667  0.083333  0.285714     24.000000
  0.250000  0.083333  0.285714     24.000000
  0.333333  0.083333  0.285714     24.000000
  0.416667  0.083333  0.285714     24.000000
  0.166667  0.166667  0.285714     12.000000
  0.250000  0.166667  0.285714     24.000000
  0.333333  0.166667  0.285714     24.000000
  0.416667  0.166667  0.285714     12.000000
  0.250000  0.250000  0.285714     12.000000
  0.333333  0.250000  0.285714     24.000000
  0.333333  0.333333  0.285714      4.000000
  0.000000  0.000000  0.428571      2.000000
  0.083333  0.000000  0.428571     12.000000
  0.166667  0.000000  0.428571     12.000000
  0.250000  0.000000  0.428571     12.000000
  0.333333  0.000000  0.428571     12.000000
  0.416667  0.000000  0.428571     12.000000
  0.500000  0.000000  0.428571      6.000000
  0.083333  0.083333  0.428571     12.000000
  0.166667  0.083333  0.428571     24.000000
  0.250000  0.083333  0.428571     24.000000
  0.333333  0.083333  0.428571     24.000000
  0.416667  0.083333  0.428571     24.000000
  0.166667  0.166667  0.428571     12.000000
  0.250000  0.166667  0.428571     24.000000
  0.333333  0.166667  0.428571     24.000000
  0.416667  0.166667  0.428571     12.000000
  0.250000  0.250000  0.428571     12.000000
  0.333333  0.250000  0.428571     24.000000
  0.333333  0.333333  0.428571      4.000000
 
 Following cartesian coordinates:
            Coordinates               Weight
  0.000000  0.000000  0.000000      1.000000
  0.026205  0.015130  0.000000      6.000000
  0.052411  0.030259  0.000000      6.000000
  0.078616  0.045389  0.000000      6.000000
  0.104822  0.060519  0.000000      6.000000
  0.131027  0.075649  0.000000      6.000000
  0.157233  0.090778  0.000000      3.000000
  0.026205  0.045389  0.000000      6.000000
  0.052411  0.060519  0.000000     12.000000
  0.078616  0.075649  0.000000     12.000000
  0.104822  0.090778  0.000000     12.000000
  0.131027  0.105908  0.000000     12.000000
  0.052411  0.090778  0.000000      6.000000
  0.078616  0.105908  0.000000     12.000000
  0.104822  0.121038  0.000000     12.000000
  0.131027  0.136168  0.000000      6.000000
  0.078616  0.136168  0.000000      6.000000
  0.104822  0.151297  0.000000     12.000000
  0.104822  0.181557  0.000000      2.000000
  0.000000  0.000000  0.027653      2.000000
  0.026205  0.015130  0.027653     12.000000
  0.052411  0.030259  0.027653     12.000000
  0.078616  0.045389  0.027653     12.000000
  0.104822  0.060519  0.027653     12.000000
  0.131027  0.075649  0.027653     12.000000
  0.157233  0.090778  0.027653      6.000000
  0.026205  0.045389  0.027653     12.000000
  0.052411  0.060519  0.027653     24.000000
  0.078616  0.075649  0.027653     24.000000
  0.104822  0.090778  0.027653     24.000000
  0.131027  0.105908  0.027653     24.000000
  0.052411  0.090778  0.027653     12.000000
  0.078616  0.105908  0.027653     24.000000
  0.104822  0.121038  0.027653     24.000000
  0.131027  0.136168  0.027653     12.000000
  0.078616  0.136168  0.027653     12.000000
  0.104822  0.151297  0.027653     24.000000
  0.104822  0.181557  0.027653      4.000000
  0.000000  0.000000  0.055307      2.000000
  0.026205  0.015130  0.055307     12.000000
  0.052411  0.030259  0.055307     12.000000
  0.078616  0.045389  0.055307     12.000000
  0.104822  0.060519  0.055307     12.000000
  0.131027  0.075649  0.055307     12.000000
  0.157233  0.090778  0.055307      6.000000
  0.026205  0.045389  0.055307     12.000000
  0.052411  0.060519  0.055307     24.000000
  0.078616  0.075649  0.055307     24.000000
  0.104822  0.090778  0.055307     24.000000
  0.131027  0.105908  0.055307     24.000000
  0.052411  0.090778  0.055307     12.000000
  0.078616  0.105908  0.055307     24.000000
  0.104822  0.121038  0.055307     24.000000
  0.131027  0.136168  0.055307     12.000000
  0.078616  0.136168  0.055307     12.000000
  0.104822  0.151297  0.055307     24.000000
  0.104822  0.181557  0.055307      4.000000
  0.000000  0.000000  0.082960      2.000000
  0.026205  0.015130  0.082960     12.000000
  0.052411  0.030259  0.082960     12.000000
  0.078616  0.045389  0.082960     12.000000
  0.104822  0.060519  0.082960     12.000000
  0.131027  0.075649  0.082960     12.000000
  0.157233  0.090778  0.082960      6.000000
  0.026205  0.045389  0.082960     12.000000
  0.052411  0.060519  0.082960     24.000000
  0.078616  0.075649  0.082960     24.000000
  0.104822  0.090778  0.082960     24.000000
  0.131027  0.105908  0.082960     24.000000
  0.052411  0.090778  0.082960     12.000000
  0.078616  0.105908  0.082960     24.000000
  0.104822  0.121038  0.082960     24.000000
  0.131027  0.136168  0.082960     12.000000
  0.078616  0.136168  0.082960     12.000000
  0.104822  0.151297  0.082960     24.000000
  0.104822  0.181557  0.082960      4.000000
 


--------------------------------------------------------------------------------------------------------




 Dimension of arrays:
   k-points           NKPTS =     76   k-points in BZ     NKDIM =     76   number of bands    NBANDS=     24
   number of dos      NEDOS =    301   number of ions     NIONS =      4
   non local maximal  LDIM  =      6   non local SUM 2l+1 LMDIM =     18
   total plane-waves  NPLWV =   7168
   max r-space proj   IRMAX =      1   max aug-charges    IRDMAX=   6203
   dimension x,y,z NGX =    16 NGY =   16 NGZ =   28
   dimension x,y,z NGXF=    32 NGYF=   32 NGZF=   56
   support grid    NGXF=    32 NGYF=   32 NGZF=   56
   ions per type =               2   2
   NGX,Y,Z   is equivalent  to a cutoff of   8.36,  8.36,  9.01 a.u.
   NGXF,Y,Z  is equivalent  to a cutoff of  16.73, 16.73, 18.02 a.u.

 SYSTEM =  unknown system                          
 POSCAR =  Ga2 N2                                  

 Startparameter for this run:
   NWRITE =      2    write-flag & timer
   PREC   = normal    normal or accurate (medium, high low for compatibility)
   ISTART =      0    job   : 0-new  1-cont  2-samecut
   ICHARG =      2    charge: 1-file 2-atom 10-const
   ISPIN  =      1    spin polarized calculation?
   LNONCOLLINEAR =      F non collinear calculations
   LSORBIT =      F    spin-orbit coupling
   INIWAV =      1    electr: 0-lowe 1-rand  2-diag
   LASPH  =      T    aspherical Exc in radial PAW
 Electronic Relaxation 1
   ENCUT  =  400.0 eV  29.40 Ry    5.42 a.u.   5.19  5.19  8.42*2*pi/ulx,y,z
   ENINI  =  400.0     initial cutoff
   ENAUG  =  627.1 eV  augmentation charge cutoff
   NELM   =    100;   NELMIN=  2; NELMDL= -5     # of ELM steps 
   EDIFF  = 0.1E-08   stopping-criterion for ELM
   LREAL  =      F    real-space projection
   NLSPLINE    = F    spline interpolate recip. space projectors
   LCOMPAT=      F    compatible to vasp.4.4
   GGA_COMPAT  = T    GGA compatible to vasp.4.4-vasp.4.6
   LMAXPAW     = -100 max onsite density
   LMAXMIX     =    2 max onsite mixed and CHGCAR
   VOSKOWN=      0    Vosko Wilk Nusair interpolation
   ROPT   =    0.00000   0.00000
 Ionic relaxation
   EDIFFG = -.5E-02   stopping-criterion for IOM
   NSW    =     20    number of steps for IOM
   NBLOCK =      1;   KBLOCK =     20    inner block; outer block 
   IBRION =      2    ionic relax: 0-MD 1-quasi-New 2-CG
   NFREE  =      1    steps in history (QN), initial steepest desc. (CG)
   ISIF   =      3    stress and relaxation
   IWAVPR =     11    prediction:  0-non 1-charg 2-wave 3-comb
   ISYM   =      2    0-nonsym 1-usesym 2-fastsym
   LCORR  =      T    Harris-Foulkes like correction to forces

   POTIM  = 0.5000    time-step for ionic-motion
   TEIN   =    0.0    initial temperature
   TEBEG  =    0.0;   TEEND  =   0.0 temperature during run
   SMASS  =  -3.00    Nose mass-parameter (am)
   estimated Nose-frequenzy (Omega)   =  0.10E-29 period in steps = 0.13E+47 mass=  -0.231E-27a.u.
   SCALEE = 1.0000    scale energy and forces
   NPACO  =    256;   APACO  = 10.0  distance and # of slots for P.C.
   PSTRESS=    0.0 pullay stress

  Mass of Ions in am
   POMASS =  69.72 14.00
  Ionic Valenz
   ZVAL   =  13.00  5.00
  Atomic Wigner-Seitz radii
   RWIGS  =  -1.00 -1.00
  virtual crystal weights 
   VCA    =   1.00  1.00
   NELECT =      36.0000    total number of electrons
   NUPDOWN=      -1.0000    fix difference up-down

 DOS related values:
   EMIN   =  10.00;   EMAX   =-10.00  energy-range for DOS
   EFERMI =   0.00
   ISMEAR =     0;   SIGMA  =   0.10  broadening in eV -4-tet -1-fermi 0-gaus

 Electronic relaxation 2 (details)
   IALGO  =     38    algorithm
   LDIAG  =      T    sub-space diagonalisation (order eigenvalues)
   LSUBROT=      F    optimize rotation matrix (better conditioning)
   TURBO    =      0    0=normal 1=particle mesh
   IRESTART =      0    0=no restart 2=restart with 2 vectors
   NREBOOT  =      0    no. of reboots
   NMIN     =      0    reboot dimension
   EREF     =   0.00    reference energy to select bands
   IMIX   =      4    mixing-type and parameters
     AMIX     =   0.40;   BMIX     =  1.00
     AMIX_MAG =   1.60;   BMIX_MAG =  1.00
     AMIN     =   0.10
     WC   =   100.;   INIMIX=   1;  MIXPRE=   1;  MAXMIX= -45

 Intra band minimization:
   WEIMIN = 0.0010     energy-eigenvalue tresh-hold
   EBREAK =  0.10E-10  absolut break condition
   DEPER  =   0.30     relativ break condition  

   TIME   =   0.40     timestep for ELM

  volume/ion in A,a.u.               =      11.31        76.33
  Fermi-wavevector in a.u.,A,eV,Ry     =   1.517036  2.866782 31.312426  2.301398
  Thomas-Fermi vector in A             =   2.626345
 
 Write flags
   LWAVE        =      F    write WAVECAR
   LDOWNSAMPLE  =      F    k-point downsampling of WAVECAR
   LCHARG       =      F    write CHGCAR
   LVTOT        =      F    write LOCPOT, total local potential
   LVHAR        =      F    write LOCPOT, Hartree potential only
   LELF         =      F    write electronic localiz. function (ELF)
   LORBIT       =     10    0 simple, 1 ext, 2 COOP (PROOUT), +10 PAW based schemes


 Dipole corrections
   LMONO  =      F    monopole corrections only (constant potential shift)
   LDIPOL =      F    correct potential (dipole corrections)
   IDIPOL =      0    1-x, 2-y, 3-z, 4-all directions 
   EPSILON=  1.0000000 bulk dielectric constant

 Exchange correlation treatment:
   GGA     =    --    GGA type
   LEXCH   =     8    internal setting for exchange type
   LIBXC   =     F    Libxc                    
   VOSKOWN =     0    Vosko Wilk Nusair interpolation
   LHFCALC =     F    Hartree Fock is set to
   LHFONE  =     F    Hartree Fock one center treatment
   AEXX    =    0.0000 exact exchange contribution

 Linear response parameters
   LEPSILON=     F    determine dielectric tensor
   LRPA    =     F    only Hartree local field effects (RPA)
   LNABLA  =     F    use nabla operator in PAW spheres
   LVEL    =     F    velocity operator in full k-point grid
   CSHIFT  =0.1000    complex shift for real part using Kramers Kronig
   OMEGAMAX=  -1.0    maximum frequency
   DEG_THRESHOLD= 0.2000000E-02 threshold for treating states as degnerate
   RTIME   =   -0.100 relaxation time in fs
  (WPLASMAI=    0.000 imaginary part of plasma frequency in eV, 0.658/RTIME)
   DFIELD  = 0.0000000 0.0000000 0.0000000 field for delta impulse in time
 
  Optional k-point grid parameters
   LKPOINTS_OPT  =     F    use optional k-point grid
   KPOINTS_OPT_MODE=     1    mode for optional k-point grid
 
 Orbital magnetization related:
   ORBITALMAG=     F  switch on orbital magnetization
   LCHIMAG   =     F  perturbation theory with respect to B field
   DQ        =  0.001000  dq finite difference perturbation B field
   LLRAUG    =     F  two centre corrections for induced B field



--------------------------------------------------------------------------------------------------------


 conjugate gradient relaxation of ions
 charge density and potential will be updated during run
 non-spin polarized calculation
 Variant of blocked Davidson
 Davidson routine will perform the subspace rotation
 perform sub-space diagonalisation
    after iterative eigenvector-optimisation
 modified Broyden-mixing scheme, WC =      100.0
 initial mixing is a Kerker type mixing with AMIX =  0.4000 and BMIX =      1.0000
 Hartree-type preconditioning will be used
 using additional bands            6
 reciprocal scheme for non local part
 use partial core corrections
 calculate Harris-corrections to forces 
   (improved forces if not selfconsistent)
 use gradient corrections 
 use of overlap-Matrix (Vanderbilt PP)
 Gauss-broadening in eV      SIGMA  =   0.10


--------------------------------------------------------------------------------------------------------


  energy-cutoff  :      400.00
  volume of cell :       45.24
      direct lattice vectors                 reciprocal lattice vectors
     3.180000067  0.000000000  0.000000000     0.314465402  0.181556685  0.000000000
    -1.590000033  2.753960842  0.000000000     0.000000000  0.363113369  0.000000000
     0.000000000  0.000000000  5.165999889     0.000000000  0.000000000  0.193573368

  length of vectors
     3.180000067  3.180000067  5.165999889     0.363113369  0.363113369  0.193573368


 
 k-points in units of 2pi/SCALE and weight: Num irrep kpoints: 76                   
   0.00000000  0.00000000  0.00000000       0.001
   0.02620545  0.01512972  0.00000000       0.006
   0.05241090  0.03025945  0.00000000       0.006
   0.07861635  0.04538917  0.00000000       0.006
   0.10482180  0.06051889  0.00000000       0.006
   0.13102725  0.07564862  0.00000000       0.006
   0.15723270  0.09077834  0.00000000       0.003
   0.02620545  0.04538917  0.00000000       0.006
   0.05241090  0.06051889  0.00000000       0.012
   0.07861635  0.07564862  0.00000000       0.012
   0.10482180  0.09077834  0.00000000       0.012
   0.13102725  0.10590807  0.00000000       0.012
   0.05241090  0.09077834  0.00000000       0.006
   0.07861635  0.10590807  0.00000000       0.012
   0.10482180  0.12103779  0.00000000       0.012
   0.13102725  0.13616751  0.00000000       0.006
   0.07861635  0.13616751  0.00000000       0.006
   0.10482180  0.15129724  0.00000000       0.012
   0.10482180  0.18155668  0.00000000       0.002
   0.00000000  0.00000000  0.02765334       0.002
   0.02620545  0.01512972  0.02765334       0.012
   0.05241090  0.03025945  0.02765334       0.012
   0.07861635  0.04538917  0.02765334       0.012
   0.10482180  0.06051889  0.02765334       0.012
   0.13102725  0.07564862  0.02765334       0.012
   0.15723270  0.09077834  0.02765334       0.006
   0.02620545  0.04538917  0.02765334       0.012
   0.05241090  0.06051889  0.02765334       0.024
   0.07861635  0.07564862  0.02765334       0.024
   0.10482180  0.09077834  0.02765334       0.024
   0.13102725  0.10590807  0.02765334       0.024
   0.05241090  0.09077834  0.02765334       0.012
   0.07861635  0.10590807  0.02765334       0.024
   0.10482180  0.12103779  0.02765334       0.024
   0.13102725  0.13616751  0.02765334       0.012
   0.07861635  0.13616751  0.02765334       0.012
   0.10482180  0.15129724  0.02765334       0.024
   0.10482180  0.18155668  0.02765334       0.004
   0.00000000  0.00000000  0.05530668       0.002
   0.02620545  0.01512972  0.05530668       0.012
   0.05241090  0.03025945  0.05530668       0.012
   0.07861635  0.04538917  0.05530668       0.012
   0.10482180  0.06051889  0.05530668       0.012
   0.13102725  0.07564862  0.05530668       0.012
   0.15723270  0.09077834  0.05530668       0.006
   0.02620545  0.04538917  0.05530668       0.012
   0.05241090  0.06051889  0.05530668       0.024
   0.07861635  0.07564862  0.05530668       0.024
   0.10482180  0.09077834  0.05530668       0.024
   0.13102725  0.10590807  0.05530668       0.024
   0.05241090  0.09077834  0.05530668       0.012
   0.07861635  0.10590807  0.05530668       0.024
   0.10482180  0.12103779  0.05530668       0.024
   0.13102725  0.13616751  0.05530668       0.012
   0.07861635  0.13616751  0.05530668       0.012
   0.10482180  0.15129724  0.05530668       0.024
   0.10482180  0.18155668  0.05530668       0.004
   0.00000000  0.00000000  0.08296002       0.002
   0.02620545  0.01512972  0.08296002       0.012
   0.05241090  0.03025945  0.08296002       0.012
   0.07861635  0.04538917  0.08296002       0.012
   0.10482180  0.06051889  0.08296002       0.012
   0.13102725  0.07564862  0.08296002       0.012
   0.15723270  0.09077834  0.08296002       0.006
   0.02620545  0.04538917  0.08296002       0.012
   0.05241090  0.06051889  0.08296002       0.024
   0.07861635  0.07564862  0.08296002       0.024
   0.10482180  0.09077834  0.08296002       0.024
   0.13102725  0.10590807  0.08296002       0.024
   0.05241090  0.09077834  0.08296002       0.012
   0.07861635  0.10590807  0.08296002       0.024
   0.10482180  0.12103779  0.08296002       0.024
   0.13102725  0.13616751  0.08296002       0.012
   0.07861635  0.13616751  0.08296002       0.012
   0.10482180  0.15129724  0.08296002       0.024
   0.10482180  0.18155668  0.08296002       0.004
 
 k-points in reciprocal lattice and weights: Num irrep kpoints: 76                   
   0.00000000  0.00000000  0.00000000       0.001
   0.08333333  0.00000000  0.00000000       0.006
   0.16666667  0.00000000  0.00000000       0.006
   0.25000000  0.00000000  0.00000000       0.006
   0.33333333  0.00000000  0.00000000       0.006
   0.41666667  0.00000000  0.00000000       0.006
   0.50000000  0.00000000  0.00000000       0.003
   0.08333333  0.08333333  0.00000000       0.006
   0.16666667  0.08333333  0.00000000       0.012
   0.25000000  0.08333333  0.00000000       0.012
   0.33333333  0.08333333  0.00000000       0.012
   0.41666667  0.08333333  0.00000000       0.012
   0.16666667  0.16666667  0.00000000       0.006
   0.25000000  0.16666667  0.00000000       0.012
   0.33333333  0.16666667  0.00000000       0.012
   0.41666667  0.16666667  0.00000000       0.006
   0.25000000  0.25000000  0.00000000       0.006
   0.33333333  0.25000000  0.00000000       0.012
   0.33333333  0.33333333  0.00000000       0.002
   0.00000000  0.00000000  0.14285714       0.002
   0.08333333  0.00000000  0.14285714       0.012
   0.16666667  0.00000000  0.14285714       0.012
   0.25000000  0.00000000  0.14285714       0.012
   0.33333333  0.00000000  0.14285714       0.012
   0.41666667  0.00000000  0.14285714       0.012
   0.50000000  0.00000000  0.14285714       0.006
   0.08333333  0.08333333  0.14285714       0.012
   0.16666667  0.08333333  0.14285714       0.024
   0.25000000  0.08333333  0.14285714       0.024
   0.33333333  0.08333333  0.14285714       0.024
   0.41666667  0.08333333  0.14285714       0.024
   0.16666667  0.16666667  0.14285714       0.012
   0.25000000  0.16666667  0.14285714       0.024
   0.33333333  0.16666667  0.14285714       0.024
   0.41666667  0.16666667  0.14285714       0.012
   0.25000000  0.25000000  0.14285714       0.012
   0.33333333  0.25000000  0.14285714       0.024
   0.33333333  0.33333333  0.14285714       0.004
   0.00000000  0.00000000  0.28571429       0.002
   0.08333333  0.00000000  0.28571429       0.012
   0.16666667  0.00000000  0.28571429       0.012
   0.25000000  0.00000000  0.28571429       0.012
   0.33333333  0.00000000  0.28571429       0.012
   0.41666667  0.00000000  0.28571429       0.012
   0.50000000  0.00000000  0.28571429       0.006
   0.08333333  0.08333333  0.28571429       0.012
   0.16666667  0.08333333  0.28571429       0.024
   0.25000000  0.08333333  0.28571429       0.024
   0.33333333  0.08333333  0.28571429       0.024
   0.41666667  0.08333333  0.28571429       0.024
   0.16666667  0.16666667  0.28571429       0.012
   0.25000000  0.16666667  0.28571429       0.024
   0.33333333  0.16666667  0.28571429       0.024
   0.41666667  0.16666667  0.28571429       0.012
   0.25000000  0.25000000  0.28571429       0.012
   0.33333333  0.25000000  0.28571429       0.024
   0.33333333  0.33333333  0.28571429       0.004
   0.00000000  0.00000000  0.42857143       0.002
   0.08333333  0.00000000  0.42857143       0.012
   0.16666667  0.00000000  0.42857143       0.012
   0.25000000  0.00000000  0.42857143       0.012
   0.33333333  0.00000000  0.42857143       0.012
   0.41666667  0.00000000  0.42857143       0.012
   0.50000000  0.00000000  0.42857143       0.006
   0.08333333  0.08333333  0.42857143       0.012
   0.16666667  0.08333333  0.42857143       0.024
   0.25000000  0.08333333  0.42857143       0.024
   0.33333333  0.08333333  0.42857143       0.024
   0.41666667  0.08333333  0.42857143       0.024
   0.16666667  0.16666667  0.42857143       0.012
   0.25000000  0.16666667  0.42857143       0.024
   0.33333333  0.16666667  0.42857143       0.024
   0.41666667  0.16666667  0.42857143       0.012
   0.25000000  0.25000000  0.42857143       0.012
   0.33333333  0.25000000  0.42857143       0.024
   0.33333333  0.33333333  0.42857143       0.004
 
 position of ions in fractional coordinates (direct lattice) 
   0.33333333  0.66666667  0.00000000
   0.66666667  0.33333333  0.50000000
   0.33333333  0.66666667  0.37500000
   0.66666667  0.33333333  0.87500000
 
 position of ions in cartesian coordinates  (Angst):
  -0.00000000  1.83597389  0.00000000
   1.59000003  0.91798695  2.58299994
  -0.00000000  1.83597389  1.93724996
   1.59000003  0.91798695  4.52024990
 


--------------------------------------------------------------------------------------------------------


 k-point   1 :   0.0000 0.0000 0.0000  plane waves:     833
 k-point   2 :   0.0833 0.0000 0.0000  plane waves:     811
 k-point   3 :   0.1667 0.0000 0.0000  plane waves:     813
 k-point   4 :   0.2500 0.0000 0.0000  plane waves:     827
 k-point   5 :   0.3333 0.0000 0.0000  plane waves:     825
 k-point   6 :   0.4167 0.0000 0.0000  plane waves:     831
 k-point   7 :   0.5000 0.0000 0.0000  plane waves:     834
 k-point   8 :   0.0833 0.0833 0.0000  plane waves:     815
 k-point   9 :   0.1667 0.0833 0.0000  plane waves:     816
 k-point  10 :   0.2500 0.0833 0.0000  plane waves:     826
 k-point  11 :   0.3333 0.0833 0.0000  plane waves:     824
 k-point  12 :   0.4167 0.0833 0.0000  plane waves:     831
 k-point  13 :   0.1667 0.1667 0.0000  plane waves:     815
 k-point  14 :   0.2500 0.1667 0.0000  plane waves:     823
 k-point  15 :   0.3333 0.1667 0.0000  plane waves:     829
 k-point  16 :   0.4167 0.1667 0.0000  plane waves:     820
 k-point  17 :   0.2500 0.2500 0.0000  plane waves:     821
 k-point  18 :   0.3333 0.2500 0.0000  plane waves:     824
 k-point  19 :   0.3333 0.3333 0.0000  plane waves:     813
 k-point  20 :   0.0000 0.0000 0.1429  plane waves:     809
 k-point  21 :   0.0833 0.0000 0.1429  plane waves:     817
 k-point  22 :   0.1667 0.0000 0.1429  plane waves:     811
 k-point  23 :   0.2500 0.0000 0.1429  plane waves:     822
 k-point  24 :   0.3333 0.0000 0.1429  plane waves:     827
 k-point  25 :   0.4167 0.0000 0.1429  plane waves:     834
 k-point  26 :   0.5000 0.0000 0.1429  plane waves:     836
 k-point  27 :   0.0833 0.0833 0.1429  plane waves:     821
 k-point  28 :   0.1667 0.0833 0.1429  plane waves:     817
 k-point  29 :   0.2500 0.0833 0.1429  plane waves:     823
 k-point  30 :   0.3333 0.0833 0.1429  plane waves:     825
 k-point  31 :   0.4167 0.0833 0.1429  plane waves:     827
 k-point  32 :   0.1667 0.1667 0.1429  plane waves:     819
 k-point  33 :   0.2500 0.1667 0.1429  plane waves:     818
 k-point  34 :   0.3333 0.1667 0.1429  plane waves:     827
 k-point  35 :   0.4167 0.1667 0.1429  plane waves:     826
 k-point  36 :   0.2500 0.2500 0.1429  plane waves:     820
 k-point  37 :   0.3333 0.2500 0.1429  plane waves:     825
 k-point  38 :   0.3333 0.3333 0.1429  plane waves:     828
 k-point  39 :   0.0000 0.0000 0.2857  plane waves:     821
 k-point  40 :   0.0833 0.0000 0.2857  plane waves:     817
 k-point  41 :   0.1667 0.0000 0.2857  plane waves:     813
 k-point  42 :   0.2500 0.0000 0.2857  plane waves:     825
 k-point  43 :   0.3333 0.0000 0.2857  plane waves:     825
 k-point  44 :   0.4167 0.0000 0.2857  plane waves:     826
 k-point  45 :   0.5000 0.0000 0.2857  plane waves:     818
 k-point  46 :   0.0833 0.0833 0.2857  plane waves:     813
 k-point  47 :   0.1667 0.0833 0.2857  plane waves:     819
 k-point  48 :   0.2500 0.0833 0.2857  plane waves:     824
 k-point  49 :   0.3333 0.0833 0.2857  plane waves:     825
 k-point  50 :   0.4167 0.0833 0.2857  plane waves:     824
 k-point  51 :   0.1667 0.1667 0.2857  plane waves:     817
 k-point  52 :   0.2500 0.1667 0.2857  plane waves:     822
 k-point  53 :   0.3333 0.1667 0.2857  plane waves:     823
 k-point  54 :   0.4167 0.1667 0.2857  plane waves:     824
 k-point  55 :   0.2500 0.2500 0.2857  plane waves:     822
 k-point  56 :   0.3333 0.2500 0.2857  plane waves:     827
 k-point  57 :   0.3333 0.3333 0.2857  plane waves:     807
 k-point  58 :   0.0000 0.0000 0.4286  plane waves:     814
 k-point  59 :   0.0833 0.0000 0.4286  plane waves:     814
 k-point  60 :   0.1667 0.0000 0.4286  plane waves:     819
 k-point  61 :   0.2500 0.0000 0.4286  plane waves:     818
 k-point  62 :   0.3333 0.0000 0.4286  plane waves:     824
 k-point  63 :   0.4167 0.0000 0.4286  plane waves:     822
 k-point  64 :   0.5000 0.0000 0.4286  plane waves:     820
 k-point  65 :   0.0833 0.0833 0.4286  plane waves:     818
 k-point  66 :   0.1667 0.0833 0.4286  plane waves:     821
 k-point  67 :   0.2500 0.0833 0.4286  plane waves:     826
 k-point  68 :   0.3333 0.0833 0.4286  plane waves:     827
 k-point  69 :   0.4167 0.0833 0.4286  plane waves:     819
 k-point  70 :   0.1667 0.1667 0.4286  plane waves:     825
 k-point  71 :   0.2500 0.1667 0.4286  plane waves:     823
 k-point  72 :   0.3333 0.1667 0.4286  plane waves:     820
 k-point  73 :   0.4167 0.1667 0.4286  plane waves:     814
 k-point  74 :   0.2500 0.2500 0.4286  plane waves:     818
 k-point  75 :   0.3333 0.2500 0.4286  plane waves:     812
 k-point  76 :   0.3333 0.3333 0.4286  plane waves:     813

 maximum and minimum number of plane-waves per node :       836      807

 maximum number of plane-waves:       836
 maximum index in each direction: 
   IXMAX=    5   IYMAX=    5   IZMAX=    8
   IXMIN=   -5   IYMIN=   -5   IZMIN=   -8


 serial   3D FFT for wavefunctions
 parallel 3D FFT for charge:
    minimum data exchange during FFTs selected (reduces bandwidth)


 total amount of memory used by VASP MPI-rank0    52745. kBytes
=======================================================================

   base      :      30000. kBytes
   nonl-proj :      18439. kBytes
   fftplans  :        274. kBytes
   grid      :        702. kBytes
   one-center:         62. kBytes
   wavefun   :       3268. kBytes
 
     INWAV:  cpu time      0.0000: real time      0.0001
 Broyden mixing: mesh for mixing (old mesh)
   NGX = 11   NGY = 11   NGZ = 17
  (NGX  = 32   NGY  = 32   NGZ  = 56)
  gives a total of   2057 points

 initial charge density was supplied:
 charge density of overlapping atoms calculated
 number of electron      36.0000000 magnetization 
 keeping initial charge density in first step


--------------------------------------------------------------------------------------------------------


 Maximum index for augmentation-charges          707 (set IRDMAX)


--------------------------------------------------------------------------------------------------------


 First call to EWALD:  gamma=   0.497
 Maximum number of real-space cells 3x 3x 2
 Maximum number of reciprocal cells 3x 3x 4

    FEWALD:  cpu time      0.0013: real time      0.0013


--------------------------------------- Iteration      1(   1)  ---------------------------------------


    POTLOK:  cpu time      0.0046: real time      0.0192
    SETDIJ:  cpu time      0.1302: real time      0.1327
     EDDAV:  cpu time      0.1005: real time      0.1593
       DOS:  cpu time      0.0016: real time      0.0041
    --------------------------------------------
      LOOP:  cpu time      0.2369: real time      0.3152

 eigenvalue-minimisations  :  3960
 total energy-change (2. order) : 0.2415002E+03  (-0.1566273E+04)
 number of electron      36.0000000 magnetization 
 augmentation part       36.0000000 magnetization 

 Free energy of the ion-electron system (eV)
  ---------------------------------------------------
  alpha Z        PSCENC =       199.60645165
  Ewald energy   TEWEN  =     -3183.85810762
  -Hartree energ DENC   =     -1150.69441055
  -exchange      EXHF   =         0.00000000
  -V(xc)+E(xc)   XCENC  =       128.94449688
  PAW double counting   =      3616.17691320    -4285.66495278
  entropy T*S    EENTRO =        -0.00732324
  eigenvalues    EBANDS =        90.40784165
  atomic energy  EATOM  =      4826.58925392
  Solvation  Ediel_sol  =         0.00000000
  ---------------------------------------------------
  free energy    TOTEN  =       241.50016311 eV

  energy without entropy =      241.50748635  energy(sigma->0) =      241.50382473


--------------------------------------------------------------------------------------------------------




--------------------------------------- Iteration      1(   2)  ---------------------------------------


     EDDAV:  cpu time      0.0882: real time      0.0898
       DOS:  cpu time      0.0003: real time      0.0003
    --------------------------------------------
      LOOP:  cpu time      0.0884: real time      0.0901

 eigenvalue-minimisations  :  4080
 total energy-change (2. order) :-0.2416468E+03  (-0.2303331E+03)
 number of electron      36.0000000 magnetization 
 augmentation part       36.0000000 magnetization 

 Free energy of the ion-electron system (eV)
  ---------------------------------------------------
  alpha Z        PSCENC =       199.60645165
  Ewald energy   TEWEN  =     -3183.85810762
  -Hartree energ DENC   =     -1150.69441055
  -exchange      EXHF   =         0.00000000
  -V(xc)+E(xc)   XCENC  =       128.94449688
  PAW double counting   =      3616.17691320    -4285.66495278
  entropy T*S    EENTRO =        -0.00000000
  eigenvalues    EBANDS =      -151.24624598
  atomic energy  EATOM  =      4826.58925392
  Solvation  Ediel_sol  =         0.00000000
  ---------------------------------------------------
  free energy    TOTEN  =        -0.14660128 eV

  energy without entropy =       -0.14660128  energy(sigma->0) =       -0.14660128


--------------------------------------------------------------------------------------------------------




--------------------------------------- Iteration      1(   3)  ---------------------------------------


     EDDAV:  cpu time      0.1036: real time      0.1048
       DOS:  cpu time      0.0003: real time      0.0003
    --------------------------------------------
      LOOP:  cpu time      0.1040: real time      0.1051

 eigenvalue-minimisations  :  4296
 total energy-change (2. order) :-0.2739876E+02  (-0.2719881E+02)
 number of electron      36.0000000 magnetization 
 augmentation part       36.0000000 magnetization 

 Free energy of the ion-electron system (eV)
  ---------------------------------------------------
  alpha Z        PSCENC =       199.60645165
  Ewald energy   TEWEN  =     -3183.85810762
  -Hartree energ DENC   =     -1150.69441055
  -exchange      EXHF   =         0.00000000
  -V(xc)+E(xc)   XCENC  =       128.94449688
  PAW double counting   =      3616.17691320    -4285.66495278
  entropy T*S    EENTRO =        -0.00000000
  eigenvalues    EBANDS =      -178.64500297
  atomic energy  EATOM  =      4826.58925392
  Solvation  Ediel_sol  =         0.00000000
  ---------------------------------------------------
  free energy    TOTEN  =       -27.54535827 eV

  energy without entropy =      -27.54535827  energy(sigma->0) =      -27.54535827


--------------------------------------------------------------------------------------------------------




--------------------------------------- Iteration      1(   4)  ---------------------------------------


     EDDAV:  cpu time      0.1026: real time      0.1035
       DOS:  cpu time      0.0003: real time      0.0003
    --------------------------------------------
      LOOP:  cpu time      0.1029: real time      0.1038

 eigenvalue-minimisations  :  4744
 total energy-change (2. order) :-0.7360732E+00  (-0.7351866E+00)
 number of electron      36.0000000 magnetization 
 augmentation part       36.0000000 magnetization 

 Free energy of the ion-electron system (eV)
  ---------------------------------------------------
  alpha Z        PSCENC =       199.60645165
  Ewald energy   TEWEN  =     -3183.85810762
  -Hartree energ DENC   =     -1150.69441055
  -exchange      EXHF   =         0.00000000
  -V(xc)+E(xc)   XCENC  =       128.94449688
  PAW double counting   =      3616.17691320    -4285.66495278
  entropy T*S    EENTRO =        -0.00000000
  eigenvalues    EBANDS =      -179.38107613
  atomic energy  EATOM  =      4826.58925392
  Solvation  Ediel_sol  =         0.00000000
  ---------------------------------------------------
  free energy    TOTEN  =       -28.28143143 eV

  energy without entropy =      -28.28143143  energy(sigma->0) =      -28.28143143


--------------------------------------------------------------------------------------------------------




--------------------------------------- Iteration      1(   5)  ---------------------------------------


     EDDAV:  cpu time      0.0964: real time      0.0974
       DOS:  cpu time      0.0003: real time      0.0003
    CHARGE:  cpu time      0.0045: real time      0.0045
    MIXING:  cpu time      0.0005: real time      0.0034
    --------------------------------------------
      LOOP:  cpu time      0.1018: real time      0.1056

 eigenvalue-minimisations  :  4296
 total energy-change (2. order) :-0.1115715E-01  (-0.1115539E-01)
 number of electron      36.0000000 magnetization 
 augmentation part       17.7054823 magnetization 

 Broyden mixing:
  rms(total) = 0.10912E+01    rms(broyden)= 0.10910E+01
  rms(prec ) = 0.23434E+01
  weight for this iteration     100.00

 Free energy of the ion-electron system (eV)
  ---------------------------------------------------
  alpha Z        PSCENC =       199.60645165
  Ewald energy   TEWEN  =     -3183.85810762
  -Hartree energ DENC   =     -1150.69441055
  -exchange      EXHF   =         0.00000000
  -V(xc)+E(xc)   XCENC  =       128.94449688
  PAW double counting   =      3616.17691320    -4285.66495278
  entropy T*S    EENTRO =        -0.00000000
  eigenvalues    EBANDS =      -179.39223328
  atomic energy  EATOM  =      4826.58925392
  Solvation  Ediel_sol  =         0.00000000
  ---------------------------------------------------
  free energy    TOTEN  =       -28.29258857 eV

  energy without entropy =      -28.29258857  energy(sigma->0) =      -28.29258857


--------------------------------------------------------------------------------------------------------




--------------------------------------- Iteration      1(   6)  ---------------------------------------


    POTLOK:  cpu time      0.0030: real time      0.0032
    SETDIJ:  cpu time      0.1264: real time      0.1280
     EDDAV:  cpu time      0.1308: real time      0.1318
       DOS:  cpu time      0.0003: real time      0.0003
    CHARGE:  cpu time      0.0044: real time      0.0044
    MIXING:  cpu time      0.0004: real time      0.0017
    --------------------------------------------
      LOOP:  cpu time      0.2654: real time      0.2696

 eigenvalue-minimisations  :  6248
 total energy-change (2. order) : 0.4091881E+01  (-0.1263710E+01)
 number of electron      36.0000014 magnetization 
 augmentation part       17.4341765 magnetization 

 Broyden mixing:
  rms(total) = 0.31607E+00    rms(broyden)= 0.31564E+00
  rms(prec ) = 0.44565E+00
  weight for this iteration     100.00

 eigenvalues of (default mixing * dielectric matrix)
  average eigenvalue GAMMA=   0.9428
  0.9428

 Free energy of the ion-electron system (eV)
  ---------------------------------------------------
  alpha Z        PSCENC =       199.60645165
  Ewald energy   TEWEN  =     -3183.85810762
  -Hartree energ DENC   =     -1158.73265299
  -exchange      EXHF   =         0.00000000
  -V(xc)+E(xc)   XCENC  =       130.35771195
  PAW double counting   =      3861.22234181    -4528.78068999
  entropy T*S    EENTRO =        -0.00000000
  eigenvalues    EBANDS =      -170.60501634
  atomic energy  EATOM  =      4826.58925392
  Solvation  Ediel_sol  =         0.00000000
  ---------------------------------------------------
  free energy    TOTEN  =       -24.20070761 eV

  energy without entropy =      -24.20070761  energy(sigma->0) =      -24.20070761


--------------------------------------------------------------------------------------------------------




--------------------------------------- Iteration      1(   7)  ---------------------------------------


    POTLOK:  cpu time      0.0029: real time      0.0031
    SETDIJ:  cpu time      0.1274: real time      0.1278
     EDDAV:  cpu time      0.0860: real time      0.0866
       DOS:  cpu time      0.0003: real time      0.0003
    CHARGE:  cpu time      0.0043: real time      0.0043
    MIXING:  cpu time      0.0004: real time      0.0004
    --------------------------------------------
      LOOP:  cpu time      0.2212: real time      0.2226

 eigenvalue-minimisations  :  3952
 total energy-change (2. order) :-0.1038813E+00  (-0.1510011E+00)
 number of electron      36.0000014 magnetization 
 augmentation part       17.3956136 magnetization 

 Broyden mixing:
  rms(total) = 0.28201E+00    rms(broyden)= 0.28198E+00
  rms(prec ) = 0.36553E+00
  weight for this iteration     100.00

 eigenvalues of (default mixing * dielectric matrix)
  average eigenvalue GAMMA=   1.4129
  1.1899  1.6359

 Free energy of the ion-electron system (eV)
  ---------------------------------------------------
  alpha Z        PSCENC =       199.60645165
  Ewald energy   TEWEN  =     -3183.85810762
  -Hartree energ DENC   =     -1158.40105793
  -exchange      EXHF   =         0.00000000
  -V(xc)+E(xc)   XCENC  =       130.34665498
  PAW double counting   =      4092.80858072    -4765.59152607
  entropy T*S    EENTRO =        -0.00000000
  eigenvalues    EBANDS =      -165.80483859
  atomic energy  EATOM  =      4826.58925392
  Solvation  Ediel_sol  =         0.00000000
  ---------------------------------------------------
  free energy    TOTEN  =       -24.30458893 eV

  energy without entropy =      -24.30458893  energy(sigma->0) =      -24.30458893


--------------------------------------------------------------------------------------------------------




--------------------------------------- Iteration      1(   8)  ---------------------------------------


    POTLOK:  cpu time      0.0030: real time      0.0032
    SETDIJ:  cpu time      0.1266: real time      0.1277
     EDDAV:  cpu time      0.1167: real time      0.1190
       DOS:  cpu time      0.0003: real time      0.0003
    CHARGE:  cpu time      0.0043: real time      0.0043
    MIXING:  cpu time      0.0005: real time      0.0021
    --------------------------------------------
      LOOP:  cpu time      0.2513: real time      0.2566

 eigenvalue-minimisations  :  5904
 total energy-change (2. order) : 0.3549649E-02  (-0.1711855E-01)
 number of electron      36.0000012 magnetization 
 augmentation part       17.4081335 magnetization 

 Broyden mixing:
  rms(total) = 0.72314E-01    rms(broyden)= 0.72297E-01
  rms(prec ) = 0.14641E+00
  weight for this iteration     100.00

 eigenvalues of (default mixing * dielectric matrix)
  average eigenvalue GAMMA=   1.5156
  2.5600  0.9935  0.9935

 Free energy of the ion-electron system (eV)
  ---------------------------------------------------
  alpha Z        PSCENC =       199.60645165
  Ewald energy   TEWEN  =     -3183.85810762
  -Hartree energ DENC   =     -1155.07395258
  -exchange      EXHF   =         0.00000000
  -V(xc)+E(xc)   XCENC  =       130.08835509
  PAW double counting   =      4534.54228420    -5213.02379522
  entropy T*S    EENTRO =        -0.00000000
  eigenvalues    EBANDS =      -163.17152871
  atomic energy  EATOM  =      4826.58925392
  Solvation  Ediel_sol  =         0.00000000
  ---------------------------------------------------
  free energy    TOTEN  =       -24.30103928 eV

  energy without entropy =      -24.30103928  energy(sigma->0) =      -24.30103928


--------------------------------------------------------------------------------------------------------




--------------------------------------- Iteration      1(   9)  ---------------------------------------


    POTLOK:  cpu time      0.0029: real time      0.0031
    SETDIJ:  cpu time      0.1262: real time      0.1277
     EDDAV:  cpu time      0.1310: real time      0.1320
       DOS:  cpu time      0.0003: real time      0.0003
    CHARGE:  cpu time      0.0045: real time      0.0045
    MIXING:  cpu time      0.0004: real time      0.0004
    --------------------------------------------
      LOOP:  cpu time      0.2654: real time      0.2680

 eigenvalue-minimisations  :  6256
 total energy-change (2. order) : 0.1464391E-01  (-0.6569427E-02)
 number of electron      36.0000013 magnetization 
 augmentation part       17.3950038 magnetization 

 Broyden mixing:
  rms(total) = 0.33945E-01    rms(broyden)= 0.33935E-01
  rms(prec ) = 0.36565E-01
  weight for this iteration     100.00

 eigenvalues of (default mixing * dielectric matrix)
  average eigenvalue GAMMA=   1.7605
  2.4503  2.4503  1.0707  1.0707

 Free energy of the ion-electron system (eV)
  ---------------------------------------------------
  alpha Z        PSCENC =       199.60645165
  Ewald energy   TEWEN  =     -3183.85810762
  -Hartree energ DENC   =     -1155.46957240
  -exchange      EXHF   =         0.00000000
  -V(xc)+E(xc)   XCENC  =       130.17122547
  PAW double counting   =      4539.53043809    -5217.35919424
  entropy T*S    EENTRO =        -0.00000000
  eigenvalues    EBANDS =      -163.49689024
  atomic energy  EATOM  =      4826.58925392
  Solvation  Ediel_sol  =         0.00000000
  ---------------------------------------------------
  free energy    TOTEN  =       -24.28639537 eV

  energy without entropy =      -24.28639537  energy(sigma->0) =      -24.28639537


--------------------------------------------------------------------------------------------------------




--------------------------------------- Iteration      1(  10)  ---------------------------------------


    POTLOK:  cpu time      0.0031: real time      0.0033
    SETDIJ:  cpu time      0.1275: real time      0.1280
     EDDAV:  cpu time      0.0878: real time      0.0885
       DOS:  cpu time      0.0007: real time      0.0007
    CHARGE:  cpu time      0.0043: real time      0.0043
    MIXING:  cpu time      0.0005: real time      0.0005
    --------------------------------------------
      LOOP:  cpu time      0.2238: real time      0.2252

 eigenvalue-minimisations  :  4096
 total energy-change (2. order) :-0.7465899E-03  (-0.3634716E-03)
 number of electron      36.0000013 magnetization 
 augmentation part       17.3952177 magnetization 

 Broyden mixing:
  rms(total) = 0.75542E-02    rms(broyden)= 0.75500E-02
  rms(prec ) = 0.15974E-01
  weight for this iteration     100.00

 eigenvalues of (default mixing * dielectric matrix)
  average eigenvalue GAMMA=   1.6584
  2.7847  2.4008  1.0254  1.0254  1.0558

 Free energy of the ion-electron system (eV)
  ---------------------------------------------------
  alpha Z        PSCENC =       199.60645165
  Ewald energy   TEWEN  =     -3183.85810762
  -Hartree energ DENC   =     -1155.63184610
  -exchange      EXHF   =         0.00000000
  -V(xc)+E(xc)   XCENC  =       130.16804089
  PAW double counting   =      4513.51634381    -5191.28179590
  entropy T*S    EENTRO =        -0.00000000
  eigenvalues    EBANDS =      -163.39548260
  atomic energy  EATOM  =      4826.58925392
  Solvation  Ediel_sol  =         0.00000000
  ---------------------------------------------------
  free energy    TOTEN  =       -24.28714196 eV

  energy without entropy =      -24.28714196  energy(sigma->0) =      -24.28714196


--------------------------------------------------------------------------------------------------------




--------------------------------------- Iteration      1(  11)  ---------------------------------------


    POTLOK:  cpu time      0.0030: real time      0.0032
    SETDIJ:  cpu time      0.1272: real time      0.1277
     EDDAV:  cpu time      0.1099: real time      0.1107
       DOS:  cpu time      0.0003: real time      0.0003
    CHARGE:  cpu time      0.0043: real time      0.0043
    MIXING:  cpu time      0.0004: real time      0.0004
    --------------------------------------------
      LOOP:  cpu time      0.2450: real time      0.2465

 eigenvalue-minimisations  :  5448
 total energy-change (2. order) : 0.1209029E-03  (-0.1100313E-03)
 number of electron      36.0000013 magnetization 
 augmentation part       17.3938393 magnetization 

 Broyden mixing:
  rms(total) = 0.29011E-02    rms(broyden)= 0.28883E-02
  rms(prec ) = 0.36994E-02
  weight for this iteration     100.00

 eigenvalues of (default mixing * dielectric matrix)
  average eigenvalue GAMMA=   1.6321
  2.6096  2.0649  2.0649  1.0529  1.0529  0.9471

 Free energy of the ion-electron system (eV)
  ---------------------------------------------------
  alpha Z        PSCENC =       199.60645165
  Ewald energy   TEWEN  =     -3183.85810762
  -Hartree energ DENC   =     -1155.73061321
  -exchange      EXHF   =         0.00000000
  -V(xc)+E(xc)   XCENC  =       130.17939889
  PAW double counting   =      4511.52907847    -5189.18026837
  entropy T*S    EENTRO =        -0.00000000
  eigenvalues    EBANDS =      -163.42221479
  atomic energy  EATOM  =      4826.58925392
  Solvation  Ediel_sol  =         0.00000000
  ---------------------------------------------------
  free energy    TOTEN  =       -24.28702106 eV

  energy without entropy =      -24.28702106  energy(sigma->0) =      -24.28702106


--------------------------------------------------------------------------------------------------------




--------------------------------------- Iteration      1(  12)  ---------------------------------------


    POTLOK:  cpu time      0.0029: real time      0.0031
    SETDIJ:  cpu time      0.1273: real time      0.1277
     EDDAV:  cpu time      0.0847: real time      0.0853
       DOS:  cpu time      0.0003: real time      0.0003
    CHARGE:  cpu time      0.0043: real time      0.0043
    MIXING:  cpu time      0.0004: real time      0.0004
    --------------------------------------------
      LOOP:  cpu time      0.2199: real time      0.2211

 eigenvalue-minimisations  :  3920
 total energy-change (2. order) :-0.1024473E-04  (-0.1148731E-04)
 number of electron      36.0000013 magnetization 
 augmentation part       17.3937712 magnetization 

 Broyden mixing:
  rms(total) = 0.14490E-02    rms(broyden)= 0.14341E-02
  rms(prec ) = 0.27492E-02
  weight for this iteration     100.00

 eigenvalues of (default mixing * dielectric matrix)
  average eigenvalue GAMMA=   1.8396
  3.7927  2.6637  2.4438  1.0329  1.0329  1.0286  0.8824

 Free energy of the ion-electron system (eV)
  ---------------------------------------------------
  alpha Z        PSCENC =       199.60645165
  Ewald energy   TEWEN  =     -3183.85810762
  -Hartree energ DENC   =     -1155.75479682
  -exchange      EXHF   =         0.00000000
  -V(xc)+E(xc)   XCENC  =       130.18035562
  PAW double counting   =      4513.33156624    -5190.98504419
  entropy T*S    EENTRO =        -0.00000000
  eigenvalues    EBANDS =      -163.39671010
  atomic energy  EATOM  =      4826.58925392
  Solvation  Ediel_sol  =         0.00000000
  ---------------------------------------------------
  free energy    TOTEN  =       -24.28703130 eV

  energy without entropy =      -24.28703130  energy(sigma->0) =      -24.28703130


--------------------------------------------------------------------------------------------------------




--------------------------------------- Iteration      1(  13)  ---------------------------------------


    POTLOK:  cpu time      0.0029: real time      0.0031
    SETDIJ:  cpu time      0.1269: real time      0.1273
     EDDAV:  cpu time      0.1152: real time      0.1160
       DOS:  cpu time      0.0003: real time      0.0003
    CHARGE:  cpu time      0.0042: real time      0.0042
    MIXING:  cpu time      0.0004: real time      0.0005
    --------------------------------------------
      LOOP:  cpu time      0.2500: real time      0.2514

 eigenvalue-minimisations  :  5680
 total energy-change (2. order) :-0.1288532E-05  (-0.3912868E-05)
 number of electron      36.0000013 magnetization 
 augmentation part       17.3942090 magnetization 

 Broyden mixing:
  rms(total) = 0.15378E-02    rms(broyden)= 0.15239E-02
  rms(prec ) = 0.18550E-02
  weight for this iteration     100.00

 eigenvalues of (default mixing * dielectric matrix)
  average eigenvalue GAMMA=   1.6521
  3.2388  2.4369  2.4129  1.0930  1.0930  0.9917  0.9917  0.9586

 Free energy of the ion-electron system (eV)
  ---------------------------------------------------
  alpha Z        PSCENC =       199.60645165
  Ewald energy   TEWEN  =     -3183.85810762
  -Hartree energ DENC   =     -1155.79401033
  -exchange      EXHF   =         0.00000000
  -V(xc)+E(xc)   XCENC  =       130.17974759
  PAW double counting   =      4513.67817061    -5191.32784965
  entropy T*S    EENTRO =        -0.00000000
  eigenvalues    EBANDS =      -163.36068876
  atomic energy  EATOM  =      4826.58925392
  Solvation  Ediel_sol  =         0.00000000
  ---------------------------------------------------
  free energy    TOTEN  =       -24.28703259 eV

  energy without entropy =      -24.28703259  energy(sigma->0) =      -24.28703259


--------------------------------------------------------------------------------------------------------




--------------------------------------- Iteration      1(  14)  ---------------------------------------


    POTLOK:  cpu time      0.0030: real time      0.0032
    SETDIJ:  cpu time      0.1270: real time      0.1274
     EDDAV:  cpu time      0.1015: real time      0.1023
       DOS:  cpu time      0.0003: real time      0.0003
    CHARGE:  cpu time      0.0042: real time      0.0043
    MIXING:  cpu time      0.0004: real time      0.0004
    --------------------------------------------
      LOOP:  cpu time      0.2365: real time      0.2379

 eigenvalue-minimisations  :  4952
 total energy-change (2. order) : 0.2584293E-06  (-0.6741793E-06)
 number of electron      36.0000013 magnetization 
 augmentation part       17.3940867 magnetization 

 Broyden mixing:
  rms(total) = 0.57877E-03    rms(broyden)= 0.54139E-03
  rms(prec ) = 0.62956E-03
  weight for this iteration     100.00

 eigenvalues of (default mixing * dielectric matrix)
  average eigenvalue GAMMA=   1.5599
  3.1946  2.5422  2.3174  1.2032  1.2032  0.9991  0.9863  0.9863  0.6070

 Free energy of the ion-electron system (eV)
  ---------------------------------------------------
  alpha Z        PSCENC =       199.60645165
  Ewald energy   TEWEN  =     -3183.85810762
  -Hartree energ DENC   =     -1155.79291132
  -exchange      EXHF   =         0.00000000
  -V(xc)+E(xc)   XCENC  =       130.18019657
  PAW double counting   =      4512.95718830    -5190.60999679
  entropy T*S    EENTRO =        -0.00000000
  eigenvalues    EBANDS =      -163.35910704
  atomic energy  EATOM  =      4826.58925392
  Solvation  Ediel_sol  =         0.00000000
  ---------------------------------------------------
  free energy    TOTEN  =       -24.28703233 eV

  energy without entropy =      -24.28703233  energy(sigma->0) =      -24.28703233


--------------------------------------------------------------------------------------------------------




--------------------------------------- Iteration      1(  15)  ---------------------------------------


    POTLOK:  cpu time      0.0029: real time      0.0031
    SETDIJ:  cpu time      0.1273: real time      0.1277
     EDDAV:  cpu time      0.1035: real time      0.1043
       DOS:  cpu time      0.0003: real time      0.0003
    CHARGE:  cpu time      0.0045: real time      0.0045
    MIXING:  cpu time      0.0008: real time      0.0008
    --------------------------------------------
      LOOP:  cpu time      0.2393: real time      0.2407

 eigenvalue-minimisations  :  4832
 total energy-change (2. order) :-0.3932291E-07  (-0.6814749E-07)
 number of electron      36.0000013 magnetization 
 augmentation part       17.3940411 magnetization 

 Broyden mixing:
  rms(total) = 0.28249E-03    rms(broyden)= 0.19475E-03
  rms(prec ) = 0.21824E-03
  weight for this iteration     100.00
  WARNING: grid for Broyden might be to small

 eigenvalues of (default mixing * dielectric matrix)
  average eigenvalue GAMMA=   1.6155
  3.2246  2.6088  2.3067  1.5361  1.5361  1.1309  1.0257  1.0257  0.8803  0.8803

 Free energy of the ion-electron system (eV)
  ---------------------------------------------------
  alpha Z        PSCENC =       199.60645165
  Ewald energy   TEWEN  =     -3183.85810762
  -Hartree energ DENC   =     -1155.79435474
  -exchange      EXHF   =         0.00000000
  -V(xc)+E(xc)   XCENC  =       130.18035820
  PAW double counting   =      4512.74866900    -5190.40233029
  entropy T*S    EENTRO =        -0.00000000
  eigenvalues    EBANDS =      -163.35697248
  atomic energy  EATOM  =      4826.58925392
  Solvation  Ediel_sol  =         0.00000000
  ---------------------------------------------------
  free energy    TOTEN  =       -24.28703237 eV

  energy without entropy =      -24.28703237  energy(sigma->0) =      -24.28703237


--------------------------------------------------------------------------------------------------------




--------------------------------------- Iteration      1(  16)  ---------------------------------------


    POTLOK:  cpu time      0.0030: real time      0.0032
    SETDIJ:  cpu time      0.1273: real time      0.1277
     EDDAV:  cpu time      0.1198: real time      0.1206
       DOS:  cpu time      0.0003: real time      0.0003
    CHARGE:  cpu time      0.0042: real time      0.0043
    MIXING:  cpu time      0.0005: real time      0.0005
    --------------------------------------------
      LOOP:  cpu time      0.2551: real time      0.2566

 eigenvalue-minimisations  :  5760
 total energy-change (2. order) : 0.9303221E-08  (-0.2333071E-08)
 number of electron      36.0000013 magnetization 
 augmentation part       17.3940483 magnetization 

 Broyden mixing:
  rms(total) = 0.23655E-03    rms(broyden)= 0.11871E-03
  rms(prec ) = 0.13893E-03
  weight for this iteration     100.00
  WARNING: grid for Broyden might be to small

 eigenvalues of (default mixing * dielectric matrix)
  average eigenvalue GAMMA=   1.6181
  3.2770  2.5773  2.5337  2.0995  1.2834  1.2834  1.0179  1.0179  1.0351  0.8654
  0.8079

 Free energy of the ion-electron system (eV)
  ---------------------------------------------------
  alpha Z        PSCENC =       199.60645165
  Ewald energy   TEWEN  =     -3183.85810762
  -Hartree energ DENC   =     -1155.79250736
  -exchange      EXHF   =         0.00000000
  -V(xc)+E(xc)   XCENC  =       130.18029171
  PAW double counting   =      4512.68955754    -5190.34182606
  entropy T*S    EENTRO =        -0.00000000
  eigenvalues    EBANDS =      -163.36014613
  atomic energy  EATOM  =      4826.58925392
  Solvation  Ediel_sol  =         0.00000000
  ---------------------------------------------------
  free energy    TOTEN  =       -24.28703236 eV

  energy without entropy =      -24.28703236  energy(sigma->0) =      -24.28703236


--------------------------------------------------------------------------------------------------------




--------------------------------------- Iteration      1(  17)  ---------------------------------------


    POTLOK:  cpu time      0.0030: real time      0.0032
    SETDIJ:  cpu time      0.1272: real time      0.1276
     EDDAV:  cpu time      0.1115: real time      0.1126
       DOS:  cpu time      0.0003: real time      0.0003
    CHARGE:  cpu time      0.0045: real time      0.0045
    MIXING:  cpu time      0.0005: real time      0.0005
    --------------------------------------------
      LOOP:  cpu time      0.2470: real time      0.2487

 eigenvalue-minimisations  :  5440
 total energy-change (2. order) :-0.5205038E-08  (-0.2087637E-08)
 number of electron      36.0000013 magnetization 
 augmentation part       17.3940370 magnetization 

 Broyden mixing:
  rms(total) = 0.20482E-03    rms(broyden)= 0.93200E-05
  rms(prec ) = 0.11287E-04
  weight for this iteration     100.00
  WARNING: grid for Broyden might be to small

 eigenvalues of (default mixing * dielectric matrix)
  average eigenvalue GAMMA=   1.5758
  3.2663  2.5338  2.5338  2.2061  1.3555  1.3555  1.0298  1.0298  1.0180  0.8237
  0.8786  0.8786

 Free energy of the ion-electron system (eV)
  ---------------------------------------------------
  alpha Z        PSCENC =       199.60645165
  Ewald energy   TEWEN  =     -3183.85810762
  -Hartree energ DENC   =     -1155.79273929
  -exchange      EXHF   =         0.00000000
  -V(xc)+E(xc)   XCENC  =       130.18033907
  PAW double counting   =      4512.63108929    -5190.28386986
  entropy T*S    EENTRO =        -0.00000000
  eigenvalues    EBANDS =      -163.35944952
  atomic energy  EATOM  =      4826.58925392
  Solvation  Ediel_sol  =         0.00000000
  ---------------------------------------------------
  free energy    TOTEN  =       -24.28703237 eV

  energy without entropy =      -24.28703237  energy(sigma->0) =      -24.28703237


--------------------------------------------------------------------------------------------------------




--------------------------------------- Iteration      1(  18)  ---------------------------------------


    POTLOK:  cpu time      0.0031: real time      0.0033
    SETDIJ:  cpu time      0.1274: real time      0.1278
     EDDAV:  cpu time      0.0765: real time      0.0772
       DOS:  cpu time      0.0003: real time      0.0003
    CHARGE:  cpu time      0.0043: real time      0.0043
    MIXING:  cpu time      0.0005: real time      0.0005
    --------------------------------------------
      LOOP:  cpu time      0.2122: real time      0.2135

 eigenvalue-minimisations  :  3136
 total energy-change (2. order) :-0.3446075E-08  (-0.1466709E-09)
 number of electron      36.0000013 magnetization 
 augmentation part       17.3940352 magnetization 

 Broyden mixing:
  rms(total) = 0.20461E-03    rms(broyden)= 0.15660E-05
  rms(prec ) = 0.23213E-05
  weight for this iteration     100.00
  WARNING: grid for Broyden might be to small

 eigenvalues of (default mixing * dielectric matrix)
  average eigenvalue GAMMA=   1.6200
  3.2846  2.6269  2.5663  2.5663  1.6069  1.6069  1.0491  1.0491  1.0798  0.9551
  0.9551  0.8490  0.8656

 Free energy of the ion-electron system (eV)
  ---------------------------------------------------
  alpha Z        PSCENC =       199.60645165
  Ewald energy   TEWEN  =     -3183.85810762
  -Hartree energ DENC   =     -1155.79275283
  -exchange      EXHF   =         0.00000000
  -V(xc)+E(xc)   XCENC  =       130.18034181
  PAW double counting   =      4512.62834244    -5190.28123660
  entropy T*S    EENTRO =        -0.00000000
  eigenvalues    EBANDS =      -163.35932514
  atomic energy  EATOM  =      4826.58925392
  Solvation  Ediel_sol  =         0.00000000
  ---------------------------------------------------
  free energy    TOTEN  =       -24.28703237 eV

  energy without entropy =      -24.28703237  energy(sigma->0) =      -24.28703237


--------------------------------------------------------------------------------------------------------




--------------------------------------- Iteration      1(  19)  ---------------------------------------


    POTLOK:  cpu time      0.0030: real time      0.0032
[...]
     18       3.8031      2.00000
     19      10.2168      0.00000
     20      10.8221      0.00000
     21      12.6886      0.00000
     22      13.1177      0.00000
     23      14.8385      0.00000
     24      15.1430      0.00000

 k-point    68 :       0.3333    0.0833    0.4286
  band No.  band energies     occupation 
      1      -9.7296      2.00000
      2      -9.6759      2.00000
      3      -8.1278      2.00000
      4      -8.1059      2.00000
      5      -8.0522      2.00000
      6      -8.0162      2.00000
      7      -7.9454      2.00000
      8      -7.9252      2.00000
      9      -7.8610      2.00000
     10      -7.8532      2.00000
     11      -6.9138      2.00000
     12      -6.6482      2.00000
     13      -0.7705      2.00000
     14      -0.4364      2.00000
     15       2.6865      2.00000
     16       3.1206      2.00000
     17       3.2947      2.00000
     18       3.7493      2.00000
     19       9.9190      0.00000
     20      10.4641      0.00000
     21      12.8273      0.00000
     22      13.2606      0.00000
     23      14.9027      0.00000
     24      14.9335      0.00000

 k-point    69 :       0.4167    0.0833    0.4286
  band No.  band energies     occupation 
      1      -9.6839      2.00000
      2      -9.6468      2.00000
      3      -8.1346      2.00000
      4      -8.1116      2.00000
      5      -8.0448      2.00000
      6      -8.0019      2.00000
      7      -7.9280      2.00000
      8      -7.9003      2.00000
      9      -7.8521      2.00000
     10      -7.8470      2.00000
     11      -6.5729      2.00000
     12      -6.4195      2.00000
     13      -1.2960      2.00000
     14      -1.0306      2.00000
     15       2.6012      2.00000
     16       3.0715      2.00000
     17       3.2614      2.00000
     18       3.7407      2.00000
     19       9.7122      0.00000
     20      10.2309      0.00000
     21      12.8763      0.00000
     22      13.2432      0.00000
     23      14.7337      0.00000
     24      15.0069      0.00000

 k-point    70 :       0.1667    0.1667    0.4286
  band No.  band energies     occupation 
      1      -9.8428      2.00000
      2      -9.7499      2.00000
      3      -8.1089      2.00000
      4      -8.0936      2.00000
      5      -8.0816      2.00000
      6      -8.0666      2.00000
      7      -7.9706      2.00000
      8      -7.9693      2.00000
      9      -7.8726      2.00000
     10      -7.8682      2.00000
     11      -7.3530      2.00000
     12      -7.0370      2.00000
     13       0.1829      2.00000
     14       0.6666      2.00000
     15       2.8344      2.00000
     16       3.0700      2.00000
     17       3.4956      2.00000
     18       3.7406      2.00000
     19      10.5673      0.00000
     20      11.1690      0.00000
     21      12.7032      0.00000
     22      12.9580      0.00000
     23      14.6450      0.00000
     24      14.9456      0.00000

 k-point    71 :       0.2500    0.1667    0.4286
  band No.  band energies     occupation 
      1      -9.7407      2.00000
      2      -9.6832      2.00000
      3      -8.1039      2.00000
      4      -8.0907      2.00000
      5      -8.0615      2.00000
      6      -8.0359      2.00000
      7      -7.9644      2.00000
      8      -7.9533      2.00000
      9      -7.8639      2.00000
     10      -7.8590      2.00000
     11      -6.9884      2.00000
     12      -6.7020      2.00000
     13      -0.4179      2.00000
     14      -0.0852      2.00000
     15       2.4192      2.00000
     16       2.7856      2.00000
     17       3.1033      2.00000
     18       3.7802      2.00000
     19      10.5847      0.00000
     20      11.0515      0.00000
     21      12.9216      0.00000
     22      13.2621      0.00000
     23      14.4876      0.00000
     24      14.5321      0.00000

 k-point    72 :       0.3333    0.1667    0.4286
  band No.  band energies     occupation 
      1      -9.6795      2.00000
      2      -9.6450      2.00000
      3      -8.1086      2.00000
      4      -8.0917      2.00000
      5      -8.0565      2.00000
      6      -8.0151      2.00000
      7      -7.9412      2.00000
      8      -7.9267      2.00000
      9      -7.8636      2.00000
     10      -7.8570      2.00000
     11      -6.6029      2.00000
     12      -6.4042      2.00000
     13      -0.9771      2.00000
     14      -0.7262      2.00000
     15       1.9827      2.00000
     16       2.4432      2.00000
     17       3.2882      2.00000
     18       3.8069      2.00000
     19      10.4263      0.00000
     20      10.9291      0.00000
     21      13.0059      0.00000
     22      13.4411      0.00000
     23      14.1608      0.00000
     24      14.4861      0.00000

 k-point    73 :       0.4167    0.1667    0.4286
  band No.  band energies     occupation 
      1      -9.6594      2.00000
      2      -9.6333      2.00000
      3      -8.1113      2.00000
      4      -8.0915      2.00000
      5      -8.0579      2.00000
      6      -8.0099      2.00000
      7      -7.9265      2.00000
      8      -7.9072      2.00000
      9      -7.8662      2.00000
     10      -7.8631      2.00000
     11      -6.4066      2.00000
     12      -6.2991      2.00000
     13      -1.2053      2.00000
     14      -0.9932      2.00000
     15       1.8321      2.00000
     16       2.3105      2.00000
     17       3.4180      2.00000
     18       3.7930      2.00000
     19      10.3418      0.00000
     20      10.8858      0.00000
     21      13.0926      0.00000
     22      13.3527      0.00000
     23      14.0628      0.00000
     24      14.4872      0.00000

 k-point    74 :       0.2500    0.2500    0.4286
  band No.  band energies     occupation 
      1      -9.6771      2.00000
      2      -9.6442      2.00000
      3      -8.0876      2.00000
      4      -8.0873      2.00000
      5      -8.0546      2.00000
      6      -8.0244      2.00000
      7      -7.9531      2.00000
      8      -7.9468      2.00000
      9      -7.8677      2.00000
     10      -7.8590      2.00000
     11      -6.6151      2.00000
     12      -6.3989      2.00000
     13      -0.7668      2.00000
     14      -0.5473      2.00000
     15       1.6645      2.00000
     16       2.1161      2.00000
     17       3.2866      2.00000
     18       3.8287      2.00000
     19      10.9756      0.00000
     20      11.1707      0.00000
     21      13.1304      0.00000
     22      13.2343      0.00000
     23      13.9982      0.00000
     24      14.3300      0.00000

 k-point    75 :       0.3333    0.2500    0.4286
  band No.  band energies     occupation 
      1      -9.6433      2.00000
      2      -9.6267      2.00000
      3      -8.0868      2.00000
      4      -8.0745      2.00000
      5      -8.0617      2.00000
      6      -8.0191      2.00000
      7      -7.9303      2.00000
      8      -7.9240      2.00000
      9      -7.8806      2.00000
     10      -7.8744      2.00000
     11      -6.3241      2.00000
     12      -6.2181      2.00000
     13      -0.9671      2.00000
     14      -0.8301      2.00000
     15       1.1865      2.00000
     16       1.6892      2.00000
     17       3.5193      2.00000
     18       3.8052      2.00000
     19      11.0825      0.00000
     20      11.4290      0.00000
     21      12.7940      0.00000
     22      13.0868      0.00000
     23      14.0909      0.00000
     24      14.2431      0.00000

 k-point    76 :       0.3333    0.3333    0.4286
  band No.  band energies     occupation 
      1      -9.6255      2.00000
      2      -9.6255      2.00000
      3      -8.0806      2.00000
      4      -8.0633      2.00000
      5      -8.0633      2.00000
      6      -8.0223      2.00000
      7      -7.9155      2.00000
      8      -7.9153      2.00000
      9      -7.8949      2.00000
     10      -7.8949      2.00000
     11      -6.1796      2.00000
     12      -6.1796      2.00000
     13      -0.8632      2.00000
     14      -0.8632      2.00000
     15       0.8249      2.00000
     16       1.3640      2.00000
     17       3.7068      2.00000
     18       3.7068      2.00000
     19      11.6682      0.00000
     20      11.6682      0.00000
     21      12.1631      0.00000
     22      12.8788      0.00000
     23      14.2297      0.00000
     24      14.2297      0.00000


--------------------------------------------------------------------------------------------------------


 soft charge-density along one line, spin component           1
         0         1         2         3         4         5         6         7         8         9
 total charge-density along one line
 
 pseudopotential strength for first ion, spin component:           1
-11.408  -0.000   0.000   0.000  -0.000   0.451   0.000  -0.000
 -0.000 -11.412  -0.000  -0.000   0.000   0.000   0.453   0.000
  0.000  -0.000 -11.412   0.000  -0.000  -0.000   0.000   0.453
  0.000  -0.000   0.000 -11.412  -0.000   0.000   0.000  -0.000
 -0.000   0.000  -0.000  -0.000 -11.408   0.000   0.000   0.000
  0.451   0.000  -0.000   0.000   0.000   4.893   0.000   0.000
  0.000   0.453   0.000   0.000   0.000   0.000   4.890   0.000
 -0.000   0.000   0.453  -0.000   0.000   0.000   0.000   4.893
  0.000   0.000  -0.000   0.453   0.000   0.002  -0.000  -0.000
  0.000   0.000   0.000   0.000   0.451   0.000   0.002  -0.000
 -0.000   0.000   0.000  -0.000   0.000   0.000  -0.000   0.000
  0.000  -0.000   0.000   0.000  -0.000  -0.000   0.000   0.000
  0.000  -0.000   0.000   0.000   0.000  -0.000   0.003  -0.000
  0.000   0.000  -0.000   0.000  -0.000  -0.000  -0.000  -0.005
  0.000   0.000   0.000  -0.000  -0.000   0.004  -0.000  -0.000
 -0.000   0.008  -0.000  -0.000   0.010   0.000  -0.003   0.000
 -0.000  -0.000  -0.013  -0.000   0.000   0.000  -0.000   0.005
  0.010  -0.000  -0.000   0.008   0.000  -0.004   0.000   0.000
 total augmentation occupancy for first ion, spin component:           1
  2.012   0.000  -0.000   0.002   0.000   0.034   0.000   0.000   0.010   0.000   0.000  -0.000   0.000   0.000  -0.018   0.000
  0.000   2.010   0.000  -0.000   0.002   0.000   0.026   0.000   0.000   0.010   0.000   0.000  -0.012   0.000   0.000  -0.002
  0.000   0.000   2.014   0.000   0.000  -0.000   0.000   0.041   0.000   0.000  -0.001  -0.000  -0.000   0.022  -0.000  -0.000
  0.002   0.000   0.000   2.010   0.000   0.010   0.000  -0.000   0.026  -0.000   0.000   0.000  -0.000   0.000  -0.012   0.000
  0.000   0.002   0.000   0.000   2.012  -0.000   0.010   0.000   0.000   0.034  -0.000  -0.000  -0.018   0.000   0.000  -0.003
  0.034   0.000   0.000   0.010   0.000   0.093   0.000   0.000   0.035   0.000   0.000   0.000   0.000  -0.000  -0.203   0.000
  0.000   0.026   0.000   0.000   0.010   0.000   0.065   0.000   0.000   0.035   0.000  -0.000  -0.139   0.000   0.000  -0.003
  0.000   0.000   0.041   0.000   0.000   0.000   0.000   0.118   0.000   0.000  -0.007  -0.000  -0.000   0.244   0.000  -0.000
  0.010   0.000   0.000   0.026  -0.000   0.035   0.000   0.000   0.065   0.000   0.000   0.000   0.000  -0.000  -0.139   0.000
 -0.000   0.010   0.000   0.000   0.034  -0.000   0.035   0.000   0.000   0.093  -0.000  -0.000  -0.203   0.000   0.000  -0.005
 -0.000   0.000  -0.001   0.000  -0.000   0.000   0.000  -0.007   0.000  -0.000   1.320   0.039   0.000   0.002   0.000  -0.000
 -0.000   0.000  -0.000   0.000  -0.000   0.000   0.000  -0.000   0.000  -0.000   0.039   0.002   0.000   0.000   0.000   0.000
  0.000  -0.012  -0.000   0.000  -0.018   0.000  -0.139  -0.000   0.000  -0.203   0.000   0.000   1.052  -0.000   0.000   0.023
  0.000  -0.000   0.022   0.000   0.000  -0.000   0.000   0.244   0.000   0.000   0.002   0.000  -0.000   1.033  -0.000   0.000
 -0.018   0.000  -0.000  -0.012  -0.000  -0.203   0.000   0.000  -0.139   0.000   0.000   0.000   0.000   0.000   1.052   0.000
  0.000  -0.002  -0.000   0.000  -0.003   0.000  -0.003  -0.000  -0.000  -0.005   0.000   0.000   0.023   0.000   0.000   0.001
 -0.000   0.000   0.004   0.000   0.000   0.000  -0.000   0.006   0.000   0.000   0.000  -0.000   0.000   0.023   0.000   0.000
 -0.003   0.000   0.000  -0.002  -0.000  -0.005  -0.000   0.000  -0.003   0.000   0.000   0.000   0.000   0.000   0.023   0.000


------------------------ aborting loop because EDIFF is reached ----------------------------------------





 total charge

# of ion       s       p       d       tot
------------------------------------------
    1        0.786   0.888  10.175  11.849
    2        0.786   0.888  10.175  11.849
    3        1.239   2.463   0.000   3.701
    4        1.239   2.463   0.000   3.701
--------------------------------------------------
tot          4.049   6.701  20.350  31.100
 
    CHARGE:  cpu time      0.0041: real time      0.0041
    FORLOC:  cpu time      0.0003: real time      0.0003
    FORNL :  cpu time      0.0102: real time      0.0102
    STRESS:  cpu time      0.2223: real time      0.2235
    FORCOR:  cpu time      0.0030: real time      0.0030
    FORHAR:  cpu time      0.0007: real time      0.0007
    MIXING:  cpu time      0.0003: real time      0.0004
    OFIELD:  cpu time      0.0000: real time      0.0000

  FORCE on cell =-STRESS in cart. coord.  units (eV):
  Direction    XX          YY          ZZ          XY          YZ          ZX
  --------------------------------------------------------------------------------------
  Alpha Z   196.01275   196.01275   196.01275
  Ewald   -1064.51436 -1064.51436 -1035.62327     0.00000    -0.00000    -0.00000
  Hartree   380.61381   380.61381   404.33314    -0.00000    -0.00000    -0.00000
  E(xc)    -201.04290  -201.04283  -201.02612     0.00007     0.00001     0.00000
  Local     121.83477   121.83220    69.06358    -0.00223    -0.00025    -0.00014
  n-local    -4.80788    -5.31258    -5.48927     1.65682     0.07195     0.17583
  augment   247.55975   247.56140   247.68361     0.00142     0.00001     0.00001
  Kinetic   321.23609   327.93889   325.04978    -7.10882    -0.96656    -1.38133
  Fock        0.00000     0.00000     0.00000     0.00000     0.00000     0.00000
  -------------------------------------------------------------------------------------
  Total      -0.00935    -0.00935     0.00420     0.00000     0.00000     0.00000
  in kB      -0.32504    -0.32504     0.14621     0.00000     0.00000     0.00000
  external pressure =       -0.17 kB  Pullay stress =        0.00 kB


 VOLUME and BASIS-vectors are now :
 -----------------------------------------------------------------------------
  energy-cutoff  :      400.00
  volume of cell :       46.07
      direct lattice vectors                 reciprocal lattice vectors
     3.196921834  0.000000000  0.000000000     0.312800892  0.180595679 -0.000000000
    -1.598460917  2.768615522 -0.000000000     0.000000000  0.361191358 -0.000000000
     0.000000000  0.000000000  5.205169397    -0.000000000 -0.000000000  0.192116706

  length of vectors
     3.196921834  3.196921834  5.205169397     0.361191358  0.361191358  0.192116706


 FORCES acting on ions
    electron-ion (+dipol)            ewald-force                    non-local-force                 convergence-correction
 -----------------------------------------------------------------------------------------------
   -.802E-04 -.732E-04 -.374E+01   0.831E-07 -.454E-07 0.372E+01   -.498E-16 0.793E-17 0.119E-01   -.264E-09 0.137E-09 -.298E-04
   -.233E-04 -.106E-03 -.374E+01   -.831E-07 0.454E-07 0.372E+01   0.142E-16 -.106E-16 0.119E-01   0.250E-09 -.160E-09 -.298E-04
   -.246E-04 0.222E-04 0.349E+01   0.748E-07 -.410E-07 -.372E+01   0.191E-17 -.249E-17 0.241E+00   -.421E-10 0.237E-10 0.513E-05
   0.314E-04 -.101E-04 0.349E+01   -.748E-07 0.410E-07 -.372E+01   -.484E-17 0.546E-17 0.241E+00   0.415E-10 -.246E-10 0.513E-05
 -----------------------------------------------------------------------------------------------
   -.967E-04 -.167E-03 -.499E+00   -.841E-14 0.646E-14 0.178E-14   -.385E-16 0.345E-18 0.505E+00   -.141E-10 -.244E-10 -.494E-04
 
 
 POSITION                                       TOTAL-FORCE (eV/Angst)
 -----------------------------------------------------------------------------------
     -0.00000      1.84574     -0.00449        -0.000000      0.000000     -0.000246
      1.59846      0.92287      2.59809         0.000000     -0.000000     -0.000246
     -0.00000      1.84574      1.95643        -0.000000      0.000000      0.000246
      1.59846      0.92287      4.55901         0.000000     -0.000000      0.000246
 -----------------------------------------------------------------------------------
    total drift:                               -0.000097     -0.000167      0.005666


--------------------------------------------------------------------------------------------------------



  FREE ENERGIE OF THE ION-ELECTRON SYSTEM (eV)
  ---------------------------------------------------
  free  energy   TOTEN  =       -24.29832500 eV

  energy  without entropy=      -24.29832500  energy(sigma->0) =      -24.29832500
 
 d Force =-0.7131634E-06[ 0.224E-06,-0.165E-05]  d Energy = 0.1033514E-04-0.110E-04
 d Force =-0.3516708E-02[-0.339E-02,-0.365E-02]  d Ewald  =-0.2994696E+00 0.296E+00


--------------------------------------------------------------------------------------------------------


    POTLOK:  cpu time      0.1306: real time      0.1311


--------------------------------------------------------------------------------------------------------


 stress matrix after NEB project (eV)
     -0.00935      0.00000      0.00000
      0.00000     -0.00935      0.00000
      0.00000      0.00000      0.00420
  FORCES: max atom, RMS     0.000246    0.000246
  FORCE total and by dimension    0.000493    0.000246
  Stress total and by dimension    0.013871    0.009347
 Conjugate gradient step on ions:
 trial-energy change:   -0.000010  1 .order   -0.000011   -0.000029    0.000008
  (g-gl).g = 0.311E-04      g.g   = 0.309E-04  gl.gl    = 0.989E-04
 g(Force)  = 0.636E-06   g(Stress)= 0.302E-04 ortho     =-0.492E-07
 gamma     =   0.31471
 trial     =   0.93552
 opt step  =   0.73253  (harmonic =   0.73955) maximal distance =0.00017800
 next E    =   -24.298326   (d E  =  -0.00001)


--------------------------------------------------------------------------------------------------------


  
 reached required accuracy - stopping structural energy minimisation
     LOOP+:  cpu time      2.7222: real time      2.7547
    4ORBIT:  cpu time      0.0000: real time      0.0013



 total charge

# of ion       s       p       d       tot
------------------------------------------
    1        0.786   0.888  10.175  11.849
    2        0.786   0.888  10.175  11.849
    3        1.239   2.463   0.000   3.701
    4        1.239   2.463   0.000   3.701
--------------------------------------------------
tot          4.049   6.701  20.350  31.100
 

 total amount of memory used by VASP MPI-rank0    52745. kBytes
=======================================================================

   base      :      30000. kBytes
   nonl-proj :      18439. kBytes
   fftplans  :        274. kBytes
   grid      :        702. kBytes
   one-center:         62. kBytes
   wavefun   :       3268. kBytes
 
  
  
 General timing and accounting informations for this job:
 ========================================================
  
                  Total CPU time used (sec):       23.508
                            User time (sec):       23.115
                          System time (sec):        0.392
                         Elapsed time (sec):       25.364
  
                   Maximum memory used (kb):      305836.
                   Average memory used (kb):          N/A
  
                          Minor page faults:        37166
                          Major page faults:          826
                 Voluntary context switches:         3830
