PROCAR new format
# of k-points:   76         # of bands:   24         # of ions:    4

 k-point     1 :    0.00000000 0.00000000 0.00000000     weight = 0.00099206

band     1 # energy  -10.68776087 # occ.  2.00000000
 
ion      s      p      d    tot
    1  0.112  0.000  0.000  0.112
    2  0.112  0.000  0.000  0.112
    3  0.226  0.000  0.000  0.226
    4  0.226  0.000  0.000  0.226
tot    0.676  0.000  0.000  0.676
 
band     2 # energy   -9.79108998 # occ.  2.00000000
 
ion      s      p      d    tot
    1  0.022  0.013  0.208  0.243
    2  0.022  0.013  0.208  0.243
    3  0.178  0.000  0.000  0.178
    4  0.178  0.000  0.000  0.178
tot    0.399  0.027  0.416  0.841
 
band     3 # energy   -8.19864814 # occ.  2.00000000
 
ion      s      p      d    tot
    1  0.000  0.000  0.484  0.484
    2  0.000  0.000  0.484  0.484
    3  0.000  0.008  0.000  0.008
    4  0.000  0.008  0.000  0.008
tot    0.000  0.016  0.967  0.984
 
band     4 # energy   -8.18360263 # occ.  2.00000000
 
ion      s      p      d    tot
    1  0.000  0.000  0.484  0.484
    2  0.000  0.000  0.484  0.484
    3  0.000  0.008  0.000  0.008
    4  0.000  0.008  0.000  0.008
tot    0.000  0.017  0.967  0.984
 
band     5 # energy   -8.18360061 # occ.  2.00000000
 
ion      s      p      d    tot
    1  0.000  0.000  0.484  0.484
    2  0.000  0.000  0.484  0.484
    3  0.000  0.008  0.000  0.008
    4  0.000  0.008  0.000  0.008
tot    0.000  0.017  0.967  0.984
 
band     6 # energy   -8.12374028 # occ.  2.00000000
 
ion      s      p      d    tot
    1  0.000  0.000  0.486  0.486
    2  0.000  0.000  0.486  0.486
    3  0.000  0.006  0.000  0.006
    4  0.000  0.006  0.000  0.006
tot    0.000  0.013  0.972  0.986
 
band     7 # energy   -8.12373486 # occ.  2.00000000
 
ion      s      p      d    tot
    1  0.000  0.000  0.486  0.486
    2  0.000  0.000  0.486  0.486
    3  0.000  0.006  0.000  0.006
    4  0.000  0.006  0.000  0.006
tot    0.000  0.013  0.972  0.986
 
band     8 # energy   -7.93677103 # occ.  2.00000000
 
ion      s      p      d    tot
    1  0.000  0.000  0.494  0.494
    2  0.000  0.000  0.494  0.494
    3  0.000  0.000  0.000  0.000
    4  0.000  0.000  0.000  0.000
tot    0.000  0.000  0.989  0.989
 
band     9 # energy   -7.93677098 # occ.  2.00000000
 
ion      s      p      d    tot
    1  0.000  0.000  0.494  0.494
    2  0.000  0.000  0.494  0.494
    3  0.000  0.000  0.000  0.000
    4  0.000  0.000  0.000  0.000
tot    0.000  0.000  0.989  0.989
 
band    10 # energy   -7.84121974 # occ.  2.00000000
 
ion      s      p      d    tot
    1  0.000  0.000  0.497  0.497
    2  0.000  0.000  0.497  0.497
    3  0.000  0.000  0.000  0.000
    4  0.000  0.000  0.000  0.000
tot    0.000  0.000  0.994  0.994
 
band    11 # energy   -7.84121806 # occ.  2.00000000
 
ion      s      p      d    tot
    1  0.000  0.000  0.497  0.497
    2  0.000  0.000  0.497  0.497
    3  0.000  0.000  0.000  0.000
    4  0.000  0.000  0.000  0.000
tot    0.000  0.000  0.994  0.994
 
band    12 # energy   -6.61365153 # occ.  2.00000000
 
ion      s      p      d    tot
    1  0.017  0.017  0.298  0.332
    2  0.017  0.017  0.298  0.332
    3  0.113  0.000  0.000  0.113
    4  0.113  0.000  0.000  0.113
tot    0.261  0.033  0.597  0.891
 
band    13 # energy   -1.76833622 # occ.  2.00000000
 
ion      s      p      d    tot
    1  0.122  0.054  0.002  0.179
    2  0.122  0.054  0.002  0.179
    3  0.002  0.126  0.000  0.128
    4  0.002  0.126  0.000  0.128
tot    0.249  0.360  0.005  0.613
 
band    14 # energy    4.20542535 # occ.  2.00000000
 
ion      s      p      d    tot
    1  0.000  0.068  0.039  0.108
    2  0.000  0.068  0.039  0.108
    3  0.000  0.269  0.000  0.269
    4  0.000  0.269  0.000  0.269
tot    0.000  0.675  0.079  0.754
 
band    15 # energy    4.20593731 # occ.  2.00000000
 
ion      s      p      d    tot
    1  0.000  0.068  0.039  0.108
    2  0.000  0.068  0.039  0.108
    3  0.000  0.269  0.000  0.269
    4  0.000  0.269  0.000  0.269
tot    0.000  0.675  0.079  0.754
 
band    16 # energy    5.20013893 # occ.  2.00000000
 
ion      s      p      d    tot
    1  0.000  0.025  0.060  0.085
    2  0.000  0.025  0.060  0.085
    3  0.000  0.299  0.000  0.299
    4  0.000  0.299  0.000  0.299
tot    0.001  0.647  0.120  0.768
 
band    17 # energy    5.23215318 # occ.  2.00000000
 
ion      s      p      d    tot
    1  0.000  0.022  0.065  0.086
    2  0.000  0.022  0.065  0.086
    3  0.000  0.301  0.000  0.301
    4  0.000  0.301  0.000  0.301
tot    0.000  0.646  0.129  0.775
 
band    18 # energy    5.23273629 # occ.  2.00000000
 
ion      s      p      d    tot
    1  0.000  0.022  0.065  0.086
    2  0.000  0.022  0.065  0.086
    3  0.000  0.301  0.000  0.301
    4  0.000  0.301  0.000  0.301
tot    0.000  0.646  0.129  0.775
 
band    19 # energy    7.07795420 # occ.  0.00000000
 
ion      s      p      d    tot
    1  0.133  0.000  0.000  0.133
    2  0.133  0.000  0.000  0.133
    3  0.182  0.000  0.000  0.182
    4  0.182  0.000  0.000  0.182
tot    0.629  0.001  0.000  0.631
 
band    20 # energy    9.42095076 # occ.  0.00000000
 
ion      s      p      d    tot
    1  0.188  0.038  0.012  0.238
    2  0.188  0.038  0.012  0.238
    3  0.083  0.011  0.000  0.094
    4  0.083  0.011  0.000  0.094
tot    0.543  0.097  0.025  0.664
 
band    21 # energy   14.39161052 # occ.  0.00000000
 
ion      s      p      d    tot
    1  0.010  0.025  0.022  0.058
    2  0.010  0.025  0.022  0.058
    3  0.001  0.235  0.000  0.236
    4  0.001  0.235  0.000  0.236
tot    0.023  0.521  0.044  0.589
 
band    22 # energy   15.07272442 # occ.  0.00000000
 
ion      s      p      d    tot
    1  0.000  0.336  0.019  0.355
    2  0.000  0.336  0.019  0.355
    3  0.000  0.000  0.000  0.000
    4  0.000  0.000  0.000  0.000
tot    0.000  0.672  0.037  0.709
 
band    23 # energy   15.07274082 # occ.  0.00000000
 
ion      s      p      d    tot
    1  0.000  0.336  0.019  0.355
    2  0.000  0.336  0.019  0.355
    3  0.000  0.000  0.000  0.000
    4  0.000  0.000  0.000  0.000
tot    0.000  0.672  0.037  0.709
 
band    24 # energy   15.89950980 # occ.  0.00000000
 
ion      s      p      d    tot
    1  0.000  0.362  0.002  0.364
    2  0.000  0.362  0.002  0.364
    3  0.000  0.004  0.000  0.004
    4  0.000  0.004  0.000  0.004
tot    0.001  0.730  0.004  0.736
 

 k-point     2 :    0.08333333 0.00000000 0.00000000     weight = 0.00595238

band     1 # energy  -10.62028292 # occ.  2.00000000
 
ion      s      p      d    tot
    1  0.108  0.001  0.005  0.115
    2  0.108  0.001  0.005  0.115
    3  0.226  0.000  0.000  0.226
    4  0.226  0.000  0.000  0.226
tot    0.669  0.003  0.010  0.682
 
band     2 # energy   -9.77357421 # occ.  2.00000000
 
ion      s      p      d    tot
    1  0.019  0.014  0.213  0.246
    2  0.019  0.014  0.213  0.246
    3  0.177  0.000  0.000  0.177
    4  0.177  0.000  0.000  0.177
tot    0.392  0.028  0.425  0.845
 
band     3 # energy   -8.19253442 # occ.  2.00000000
 
ion      s      p      d    tot
    1  0.000  0.000  0.483  0.484
    2  0.000  0.000  0.483  0.484
    3  0.000  0.008  0.000  0.008
    4  0.000  0.008  0.000  0.008
tot    0.001  0.016  0.966  0.983
 
band     4 # energy   -8.17347301 # occ.  2.00000000
 
ion      s      p      d    tot
    1  0.000  0.000  0.484  0.484
    2  0.000  0.000  0.484  0.484
    3  0.000  0.008  0.000  0.008
    4  0.000  0.008  0.000  0.008
tot    0.000  0.017  0.968  0.984
 
band     5 # energy   -8.16055480 # occ.  2.00000000
 
ion      s      p      d    tot
    1  0.002  0.000  0.479  0.481
    2  0.002  0.000  0.479  0.481
    3  0.001  0.008  0.000  0.009
    4  0.001  0.008  0.000  0.009
tot    0.005  0.017  0.958  0.980
 
band     6 # energy   -8.11613912 # occ.  2.00000000
 
ion      s      p      d    tot
    1  0.000  0.000  0.486  0.486
    2  0.000  0.000  0.486  0.486
    3  0.000  0.006  0.000  0.006
    4  0.000  0.006  0.000  0.006
tot    0.000  0.013  0.972  0.985
 
band     7 # energy   -8.11027873 # occ.  2.00000000
 
ion      s      p      d    tot
    1  0.000  0.000  0.487  0.487
    2  0.000  0.000  0.487  0.487
    3  0.000  0.006  0.000  0.006
    4  0.000  0.006  0.000  0.006
tot    0.000  0.013  0.973  0.986
 
band     8 # energy   -7.94221519 # occ.  2.00000000
 
ion      s      p      d    tot
    1  0.000  0.000  0.494  0.494
    2  0.000  0.000  0.494  0.494
    3  0.000  0.000  0.000  0.000
    4  0.000  0.000  0.000  0.000
tot    0.000  0.000  0.988  0.988
 
band     9 # energy   -7.93728171 # occ.  2.00000000
 
ion      s      p      d    tot
    1  0.000  0.000  0.494  0.494
    2  0.000  0.000  0.494  0.494
    3  0.000  0.000  0.000  0.000
    4  0.000  0.000  0.000  0.000
tot    0.000  0.000  0.989  0.989
 
band    10 # energy   -7.85265995 # occ.  2.00000000
 
ion      s      p      d    tot
    1  0.000  0.000  0.496  0.496
    2  0.000  0.000  0.496  0.496
    3  0.000  0.000  0.000  0.000
    4  0.000  0.000  0.000  0.000
tot    0.000  0.000  0.992  0.992
 
band    11 # energy   -7.83957640 # occ.  2.00000000
 
ion      s      p      d    tot
    1  0.000  0.000  0.497  0.497
    2  0.000  0.000  0.497  0.497
    3  0.000  0.000  0.000  0.000
    4  0.000  0.000  0.000  0.000
tot    0.000  0.000  0.994  0.994
 
band    12 # energy   -6.56591990 # occ.  2.00000000
 
ion      s      p      d    tot
    1  0.017  0.017  0.295  0.329
    2  0.017  0.017  0.295  0.329
    3  0.116  0.000  0.000  0.116
    4  0.116  0.000  0.000  0.116
tot    0.267  0.034  0.589  0.890
 
band    13 # energy   -1.66986077 # occ.  2.00000000
 
ion      s      p      d    tot
    1  0.123  0.054  0.003  0.180
    2  0.123  0.054  0.003  0.180
    3  0.002  0.127  0.000  0.129
    4  0.002  0.127  0.000  0.129
tot    0.251  0.361  0.005  0.617
 
band    14 # energy    3.69405635 # occ.  2.00000000
 
ion      s      p      d    tot
    1  0.016  0.069  0.037  0.122
    2  0.016  0.069  0.037  0.122
    3  0.006  0.239  0.000  0.245
    4  0.006  0.239  0.000  0.245
tot    0.045  0.616  0.074  0.735
 
band    15 # energy    4.06490455 # occ.  2.00000000
 
ion      s      p      d    tot
    1  0.000  0.072  0.037  0.110
    2  0.000  0.072  0.037  0.110
    3  0.000  0.263  0.000  0.263
    4  0.000  0.263  0.000  0.263
tot    0.000  0.671  0.075  0.746
 
band    16 # energy    4.60010575 # occ.  2.00000000
 
ion      s      p      d    tot
    1  0.030  0.019  0.056  0.106
    2  0.030  0.019  0.056  0.106
    3  0.036  0.234  0.000  0.270
    4  0.036  0.234  0.000  0.270
tot    0.133  0.507  0.113  0.752
 
band    17 # energy    5.13669222 # occ.  2.00000000
 
ion      s      p      d    tot
    1  0.000  0.028  0.058  0.087
    2  0.000  0.028  0.058  0.087
    3  0.000  0.296  0.000  0.296
    4  0.000  0.296  0.000  0.296
tot    0.000  0.648  0.117  0.765
 
band    18 # energy    5.17660329 # occ.  2.00000000
 
ion      s      p      d    tot
    1  0.000  0.025  0.062  0.088
    2  0.000  0.025  0.062  0.088
    3  0.000  0.298  0.000  0.298
    4  0.000  0.298  0.000  0.298
tot    0.000  0.647  0.125  0.772
 
band    19 # energy    7.66535617 # occ.  0.00000000
 
ion      s      p      d    tot
    1  0.104  0.009  0.005  0.119
    2  0.104  0.009  0.005  0.119
    3  0.142  0.064  0.000  0.206
    4  0.142  0.064  0.000  0.206
tot    0.493  0.147  0.011  0.651
 
band    20 # energy    9.86008311 # occ.  0.00000000
 
ion      s      p      d    tot
    1  0.175  0.039  0.013  0.227
    2  0.175  0.039  0.013  0.227
    3  0.073  0.038  0.000  0.112
    4  0.073  0.038  0.000  0.112
tot    0.496  0.155  0.025  0.677
 
band    21 # energy   14.20887061 # occ.  0.00000000
 
ion      s      p      d    tot
    1  0.010  0.065  0.026  0.101
    2  0.010  0.065  0.026  0.101
    3  0.001  0.191  0.000  0.192
    4  0.001  0.191  0.000  0.192
tot    0.022  0.512  0.052  0.587
 
band    22 # energy   14.58664469 # occ.  0.00000000
 
ion      s      p      d    tot
    1  0.025  0.236  0.024  0.285
    2  0.025  0.236  0.024  0.285
    3  0.000  0.038  0.000  0.038
    4  0.000  0.038  0.000  0.038
tot    0.050  0.548  0.048  0.647
 
band    23 # energy   15.25367025 # occ.  0.00000000
 
ion      s      p      d    tot
    1  0.000  0.337  0.017  0.354
    2  0.000  0.337  0.017  0.354
    3  0.000  0.005  0.000  0.005
    4  0.000  0.005  0.000  0.005
tot    0.000  0.684  0.034  0.718
 
band    24 # energy   15.99420874 # occ.  0.00000000
 
ion      s      p      d    tot
    1  0.001  0.357  0.007  0.365
    2  0.001  0.357  0.007  0.365
    3  0.001  0.008  0.000  0.009
    4  0.001  0.008  0.000  0.009
tot    0.004  0.730  0.014  0.748
 

 k-point     3 :    0.16666667 0.00000000 0.00000000     weight = 0.00595238

band     1 # energy  -10.43714124 # occ.  2.00000000
 
ion      s      p      d    tot
    1  0.095  0.005  0.023  0.124
    2  0.095  0.005  0.023  0.124
    3  0.226  0.000  0.000  0.226
    4  0.226  0.000  0.000  0.226
tot    0.643  0.011  0.047  0.701
 
band     2 # energy   -9.73115479 # occ.  2.00000000
 
ion      s      p      d    tot
    1  0.014  0.015  0.226  0.254
    2  0.014  0.015  0.226  0.254
    3  0.172  0.000  0.000  0.173
    4  0.172  0.000  0.000  0.173
tot    0.372  0.030  0.451  0.854
 
band     3 # energy   -8.16887461 # occ.  2.00000000
 
ion      s      p      d    tot
    1  0.000  0.000  0.483  0.484
    2  0.000  0.000  0.483  0.484
    3  0.000  0.008  0.000  0.008
    4  0.000  0.008  0.000  0.008
tot    0.001  0.016  0.967  0.984
 
band     4 # energy   -8.14949623 # occ.  2.00000000
 
ion      s      p      d    tot
    1  0.000  0.000  0.485  0.485
    2  0.000  0.000  0.485  0.485
    3  0.000  0.008  0.000  0.008
    4  0.000  0.008  0.000  0.008
tot    0.000  0.016  0.969  0.985
 
band     5 # energy   -8.10467056 # occ.  2.00000000
 
ion      s      p      d    tot
    1  0.003  0.000  0.477  0.480
    2  0.003  0.000  0.477  0.480
    3  0.002  0.007  0.000  0.009
    4  0.002  0.007  0.000  0.009
tot    0.009  0.015  0.954  0.978
 
band     6 # energy   -8.07440454 # occ.  2.00000000
 
ion      s      p      d    tot
    1  0.005  0.000  0.471  0.476
    2  0.005  0.000  0.471  0.476
    3  0.004  0.007  0.000  0.011
    4  0.004  0.007  0.000  0.011
tot    0.017  0.015  0.941  0.973
 
band     7 # energy   -8.07374958 # occ.  2.00000000
 
ion      s      p      d    tot
    1  0.000  0.000  0.488  0.488
    2  0.000  0.000  0.488  0.488
    3  0.000  0.006  0.000  0.006
    4  0.000  0.006  0.000  0.006
tot    0.000  0.012  0.976  0.988
 
band     8 # energy   -7.95760034 # occ.  2.00000000
 
ion      s      p      d    tot
    1  0.000  0.000  0.493  0.493
    2  0.000  0.000  0.493  0.493
    3  0.000  0.000  0.000  0.000
    4  0.000  0.000  0.000  0.000
tot    0.000  0.000  0.987  0.987
 
band     9 # energy   -7.93532704 # occ.  2.00000000
 
ion      s      p      d    tot
    1  0.000  0.000  0.494  0.494
    2  0.000  0.000  0.494  0.494
    3  0.000  0.000  0.000  0.000
    4  0.000  0.000  0.000  0.000
tot    0.000  0.000  0.989  0.989
 
band    10 # energy   -7.87678274 # occ.  2.00000000
 
ion      s      p      d    tot
    1  0.000  0.000  0.494  0.494
    2  0.000  0.000  0.494  0.494
    3  0.000  0.000  0.000  0.001
    4  0.000  0.000  0.000  0.001
tot    0.001  0.001  0.987  0.989
 
band    11 # energy   -7.83578496 # occ.  2.00000000
 
ion      s      p      d    tot
    1  0.000  0.000  0.497  0.497
    2  0.000  0.000  0.497  0.497
    3  0.000  0.000  0.000  0.000
    4  0.000  0.000  0.000  0.000
tot    0.000  0.000  0.994  0.994
 
band    12 # energy   -6.43254018 # occ.  2.00000000
 
ion      s      p      d    tot
    1  0.016  0.018  0.284  0.318
    2  0.016  0.018  0.284  0.318
    3  0.125  0.001  0.000  0.126
    4  0.125  0.001  0.000  0.126
tot    0.283  0.038  0.568  0.888
 
band    13 # energy   -1.38734204 # occ.  2.00000000
 
ion      s      p      d    tot
    1  0.128  0.052  0.003  0.183
    2  0.128  0.052  0.003  0.183
    3  0.002  0.130  0.000  0.132
    4  0.002  0.130  0.000  0.132
tot    0.261  0.364  0.006  0.630
 
band    14 # energy    2.53365748 # occ.  2.00000000
 
ion      s      p      d    tot
    1  0.038  0.071  0.031  0.140
    2  0.038  0.071  0.031  0.140
    3  0.013  0.195  0.000  0.208
    4  0.013  0.195  0.000  0.208
tot    0.102  0.533  0.063  0.697
 
band    15 # energy    3.50338807 # occ.  2.00000000
 
ion      s      p      d    tot
    1  0.055  0.023  0.051  0.130
    2  0.055  0.023  0.051  0.130
    3  0.051  0.191  0.000  0.243
    4  0.051  0.191  0.000  0.243
tot    0.213  0.429  0.103  0.744
 
band    16 # energy    3.70361659 # occ.  2.00000000
 
ion      s      p      d    tot
    1  0.000  0.082  0.032  0.114
    2  0.000  0.082  0.032  0.114
    3  0.000  0.252  0.000  0.252
    4  0.000  0.252  0.000  0.252
tot    0.000  0.667  0.064  0.731
 
band    17 # energy    4.92025053 # occ.  2.00000000
 
ion      s      p      d    tot
    1  0.001  0.038  0.053  0.092
    2  0.001  0.038  0.053  0.092
    3  0.000  0.288  0.000  0.288
    4  0.000  0.288  0.000  0.288
tot    0.001  0.651  0.106  0.759
 
band    18 # energy    4.99851617 # occ.  2.00000000
 
ion      s      p      d    tot
    1  0.000  0.035  0.057  0.092
    2  0.000  0.035  0.057  0.092
    3  0.000  0.292  0.000  0.292
    4  0.000  0.292  0.000  0.292
tot    0.000  0.655  0.113  0.768
 
band    19 # energy    8.61359168 # occ.  0.00000000
 
ion      s      p      d    tot
    1  0.086  0.024  0.004  0.114
    2  0.086  0.024  0.004  0.114
    3  0.115  0.098  0.000  0.213
    4  0.115  0.098  0.000  0.213
tot    0.403  0.245  0.007  0.655
 
band    20 # energy   10.70262686 # occ.  0.00000000
 
ion      s      p      d    tot
    1  0.160  0.048  0.013  0.222
    2  0.160  0.048  0.013  0.222
    3  0.055  0.069  0.000  0.124
    4  0.055  0.069  0.000  0.124
tot    0.431  0.234  0.027  0.691
 
band    21 # energy   13.35734953 # occ.  0.00000000
 
ion      s      p      d    tot
    1  0.042  0.136  0.022  0.200
    2  0.042  0.136  0.022  0.200
    3  0.000  0.090  0.000  0.091
    4  0.000  0.090  0.000  0.091
tot    0.085  0.453  0.044  0.582
 
band    22 # energy   14.12667750 # occ.  0.00000000
 
ion      s      p      d    tot
    1  0.022  0.085  0.054  0.161
    2  0.022  0.085  0.054  0.161
    3  0.001  0.125  0.000  0.126
    4  0.001  0.125  0.000  0.126
tot    0.045  0.421  0.107  0.574
 
band    23 # energy   15.59698744 # occ.  0.00000000
 
ion      s      p      d    tot
    1  0.026  0.227  0.017  0.270
    2  0.026  0.227  0.017  0.270
    3  0.009  0.055  0.000  0.065
    4  0.009  0.055  0.000  0.065
tot    0.072  0.565  0.033  0.670
 
band    24 # energy   15.65620747 # occ.  0.00000000
 
ion      s      p      d    tot
    1  0.000  0.338  0.016  0.354
    2  0.000  0.338  0.016  0.354
    3  0.000  0.014  0.000  0.014
    4  0.000  0.014  0.000  0.014
tot    0.000  0.703  0.031  0.734
 

 k-point     4 :    0.25000000 0.00000000 0.00000000     weight = 0.00595238

band     1 # energy  -10.19613803 # occ.  2.00000000
 
ion      s      p      d    tot
    1  0.074  0.010  0.063  0.147
    2  0.074  0.010  0.063  0.147
    3  0.221  0.000  0.000  0.221
    4  0.221  0.000  0.000  0.221
tot    0.589  0.020  0.125  0.735
 
band     2 # energy   -9.68447722 # occ.  2.00000000
 
ion      s      p      d    tot
    1  0.007  0.016  0.242  0.266
    2  0.007  0.016  0.242  0.266
    3  0.167  0.000  0.000  0.167
    4  0.167  0.000  0.000  0.167
tot    0.348  0.033  0.485  0.865
 
band     3 # energy   -8.14439841 # occ.  2.00000000
 
ion      s      p      d    tot
    1  0.000  0.000  0.484  0.485
    2  0.000  0.000  0.484  0.485
    3  0.000  0.007  0.000  0.007
    4  0.000  0.007  0.000  0.007
tot    0.001  0.015  0.968  0.984
 
band     4 # energy   -8.12583541 # occ.  2.00000000
 
ion      s      p      d    tot
    1  0.000  0.000  0.485  0.486
    2  0.000  0.000  0.485  0.486
    3  0.000  0.007  0.000  0.007
    4  0.000  0.007  0.000  0.007
tot    0.000  0.015  0.971  0.986
 
band     5 # energy   -8.06228414 # occ.  2.00000000
 
ion      s      p      d    tot
    1  0.001  0.000  0.484  0.485
    2  0.001  0.000  0.484  0.485
    3  0.000  0.006  0.000  0.006
    4  0.000  0.006  0.000  0.006
tot    0.004  0.012  0.967  0.982
 
band     6 # energy   -8.02437431 # occ.  2.00000000
 
ion      s      p      d    tot
    1  0.000  0.000  0.490  0.490
    2  0.000  0.000  0.490  0.490
    3  0.000  0.005  0.000  0.005
    4  0.000  0.005  0.000  0.005
tot    0.000  0.011  0.979  0.990
 
band     7 # energy   -7.97502297 # occ.  2.00000000
 
ion      s      p      d    tot
    1  0.000  0.000  0.492  0.492
    2  0.000  0.000  0.492  0.492
    3  0.000  0.000  0.000  0.001
    4  0.000  0.000  0.000  0.001
tot    0.001  0.001  0.983  0.986
 
band     8 # energy   -7.95226741 # occ.  2.00000000
 
ion      s      p      d    tot
    1  0.006  0.001  0.468  0.475
    2  0.006  0.001  0.468  0.475
    3  0.006  0.004  0.000  0.010
    4  0.006  0.004  0.000  0.010
tot    0.025  0.009  0.936  0.970
 
band     9 # energy   -7.92133044 # occ.  2.00000000
 
ion      s      p      d    tot
    1  0.000  0.000  0.495  0.495
    2  0.000  0.000  0.495  0.495
    3  0.000  0.000  0.000  0.000
    4  0.000  0.000  0.000  0.000
tot    0.000  0.000  0.989  0.990
 
band    10 # energy   -7.84616299 # occ.  2.00000000
 
ion      s      p      d    tot
    1  0.011  0.001  0.451  0.463
    2  0.011  0.001  0.451  0.463
    3  0.012  0.004  0.000  0.016
    4  0.012  0.004  0.000  0.016
tot    0.047  0.011  0.901  0.959
 
band    11 # energy   -7.83068861 # occ.  2.00000000
 
ion      s      p      d    tot
    1  0.000  0.000  0.497  0.497
    2  0.000  0.000  0.497  0.497
    3  0.000  0.000  0.000  0.000
    4  0.000  0.000  0.000  0.000
tot    0.000  0.000  0.994  0.994
 
band    12 # energy   -6.24398948 # occ.  2.00000000
 
ion      s      p      d    tot
    1  0.012  0.021  0.269  0.302
    2  0.012  0.021  0.269  0.302
    3  0.139  0.001  0.000  0.140
    4  0.139  0.001  0.000  0.140
tot    0.302  0.044  0.539  0.884
 
band    13 # energy   -0.97227615 # occ.  2.00000000
 
ion      s      p      d    tot
    1  0.146  0.042  0.004  0.193
    2  0.146  0.042  0.004  0.193
    3  0.003  0.135  0.000  0.138
    4  0.003  0.135  0.000  0.138
tot    0.298  0.354  0.008  0.661
 
band    14 # energy    1.26816603 # occ.  2.00000000
 
ion      s      p      d    tot
    1  0.041  0.081  0.024  0.146
    2  0.041  0.081  0.024  0.146
    3  0.014  0.166  0.000  0.180
    4  0.014  0.166  0.000  0.180
tot    0.109  0.492  0.049  0.651
 
band    15 # energy    2.36112310 # occ.  2.00000000
 
ion      s      p      d    tot
    1  0.074  0.030  0.046  0.150
    2  0.074  0.030  0.046  0.150
    3  0.049  0.170  0.000  0.220
    4  0.049  0.170  0.000  0.220
tot    0.248  0.401  0.092  0.740
 
band    16 # energy    3.26668283 # occ.  2.00000000
 
ion      s      p      d    tot
    1  0.000  0.093  0.024  0.117
    2  0.000  0.093  0.024  0.117
    3  0.000  0.240  0.000  0.240
    4  0.000  0.240  0.000  0.240
tot    0.000  0.666  0.049  0.715
 
band    17 # energy    4.53453043 # occ.  2.00000000
 
ion      s      p      d    tot
    1  0.003  0.052  0.045  0.100
    2  0.003  0.052  0.045  0.100
    3  0.000  0.272  0.000  0.273
    4  0.000  0.272  0.000  0.273
tot    0.006  0.648  0.091  0.745
 
band    18 # energy    4.74354908 # occ.  2.00000000
 
ion      s      p      d    tot
    1  0.000  0.047  0.050  0.097
    2  0.000  0.047  0.050  0.097
    3  0.000  0.285  0.000  0.285
    4  0.000  0.285  0.000  0.285
tot    0.000  0.664  0.099  0.763
 
band    19 # energy    9.46177012 # occ.  0.00000000
 
ion      s      p      d    tot
    1  0.079  0.043  0.002  0.124
    2  0.079  0.043  0.002  0.124
    3  0.098  0.101  0.000  0.199
    4  0.098  0.101  0.000  0.199
tot    0.353  0.289  0.004  0.646
 
band    20 # energy   11.10939198 # occ.  0.00000000
 
ion      s      p      d    tot
    1  0.155  0.069  0.025  0.249
    2  0.155  0.069  0.025  0.249
    3  0.037  0.043  0.000  0.080
    4  0.037  0.043  0.000  0.080
tot    0.384  0.224  0.050  0.658
 
band    21 # energy   12.58177636 # occ.  0.00000000
 
ion      s      p      d    tot
    1  0.044  0.080  0.029  0.152
    2  0.044  0.080  0.029  0.152
    3  0.001  0.124  0.000  0.125
    4  0.001  0.124  0.000  0.125
tot    0.090  0.408  0.058  0.556
 
band    22 # energy   13.72725766 # occ.  0.00000000
 
ion      s      p      d    tot
    1  0.050  0.074  0.055  0.180
    2  0.050  0.074  0.055  0.180
    3  0.000  0.120  0.000  0.120
    4  0.000  0.120  0.000  0.120
tot    0.101  0.388  0.111  0.600
 
band    23 # energy   15.33437532 # occ.  0.00000000
 
ion      s      p      d    tot
    1  0.034  0.148  0.023  0.204
    2  0.034  0.148  0.023  0.204
    3  0.013  0.106  0.000  0.119
    4  0.013  0.106  0.000  0.119
tot    0.094  0.507  0.045  0.646
 
band    24 # energy   15.89833478 # occ.  0.00000000
 
ion      s      p      d    tot
    1  0.000  0.313  0.027  0.340
    2  0.000  0.313  0.027  0.340
    3  0.000  0.017  0.000  0.017
    4  0.000  0.017  0.000  0.017
tot    0.000  0.660  0.053  0.713
 

 k-point     5 :    0.33333333 0.00000000 0.00000000     weight = 0.00595238

band     1 # energy   -9.97907384 # occ.  2.00000000
 
ion      s      p      d    tot
    1  0.049  0.013  0.122  0.184
    2  0.049  0.013  0.122  0.184
    3  0.207  0.000  0.000  0.207
    4  0.207  0.000  0.000  0.207
tot    0.511  0.027  0.244  0.782
 
band     2 # energy   -9.65040463 # occ.  2.00000000
 
ion      s      p      d    tot
    1  0.002  0.017  0.257  0.276
    2  0.002  0.017  0.257  0.276
    3  0.162  0.000  0.000  0.162
    4  0.162  0.000  0.000  0.162
tot    0.328  0.034  0.513  0.875
 
band     3 # energy   -8.13187359 # occ.  2.00000000
 
ion      s      p      d    tot
    1  0.000  0.000  0.484  0.484
    2  0.000  0.000  0.484  0.484
    3  0.000  0.007  0.000  0.007
    4  0.000  0.007  0.000  0.007
tot    0.001  0.015  0.967  0.983
 
band     4 # energy   -8.11366037 # occ.  2.00000000
 
ion      s      p      d    tot
    1  0.000  0.000  0.486  0.486
    2  0.000  0.000  0.486  0.486
    3  0.000  0.006  0.000  0.006
    4  0.000  0.006  0.000  0.006
tot    0.000  0.013  0.972  0.985
 
band     5 # energy   -8.03331677 # occ.  2.00000000
 
ion      s      p      d    tot
    1  0.001  0.000  0.486  0.487
    2  0.001  0.000  0.486  0.487
    3  0.000  0.004  0.000  0.004
    4  0.000  0.004  0.000  0.004
tot    0.003  0.008  0.971  0.982
 
band     6 # energy   -7.97652700 # occ.  2.00000000
 
ion      s      p      d    tot
    1  0.000  0.000  0.492  0.492
    2  0.000  0.000  0.492  0.492
    3  0.000  0.004  0.000  0.004
    4  0.000  0.004  0.000  0.004
tot    0.000  0.009  0.983  0.992
 
band     7 # energy   -7.97421959 # occ.  2.00000000
 
ion      s      p      d    tot
    1  0.000  0.000  0.491  0.491
    2  0.000  0.000  0.491  0.491
    3  0.000  0.001  0.000  0.002
    4  0.000  0.001  0.000  0.002
tot    0.001  0.003  0.982  0.986
 
band     8 # energy   -7.94334929 # occ.  2.00000000
 
ion      s      p      d    tot
    1  0.000  0.000  0.491  0.492
    2  0.000  0.000  0.491  0.492
    3  0.001  0.001  0.000  0.002
    4  0.001  0.001  0.000  0.002
tot    0.003  0.002  0.982  0.987
 
band     9 # energy   -7.89216046 # occ.  2.00000000
 
ion      s      p      d    tot
    1  0.000  0.000  0.495  0.495
    2  0.000  0.000  0.495  0.495
    3  0.000  0.000  0.000  0.000
    4  0.000  0.000  0.000  0.000
tot    0.000  0.001  0.991  0.991
 
band    10 # energy   -7.82454992 # occ.  2.00000000
 
ion      s      p      d    tot
    1  0.000  0.000  0.497  0.497
    2  0.000  0.000  0.497  0.497
    3  0.000  0.000  0.000  0.000
    4  0.000  0.000  0.000  0.000
tot    0.000  0.000  0.995  0.995
 
band    11 # energy   -7.52628621 # occ.  2.00000000
 
ion      s      p      d    tot
    1  0.027  0.005  0.370  0.402
    2  0.027  0.005  0.370  0.402
    3  0.045  0.007  0.000  0.052
    4  0.045  0.007  0.000  0.052
tot    0.143  0.025  0.741  0.909
 
band    12 # energy   -6.07419659 # occ.  2.00000000
 
ion      s      p      d    tot
    1  0.005  0.025  0.257  0.287
    2  0.005  0.025  0.257  0.287
    3  0.153  0.000  0.000  0.153
    4  0.153  0.000  0.000  0.153
tot    0.315  0.051  0.515  0.880
 
band    13 # energy   -0.68455777 # occ.  2.00000000
 
ion      s      p      d    tot
    1  0.200  0.012  0.007  0.219
    2  0.200  0.012  0.007  0.219
    3  0.002  0.138  0.000  0.140
    4  0.002  0.138  0.000  0.140
tot    0.404  0.299  0.015  0.718
 
band    14 # energy    0.39355780 # occ.  2.00000000
 
ion      s      p      d    tot
    1  0.012  0.103  0.015  0.131
    2  0.012  0.103  0.015  0.131
    3  0.014  0.152  0.000  0.167
    4  0.014  0.152  0.000  0.167
tot    0.053  0.512  0.031  0.595
 
band    15 # energy    1.33992385 # occ.  2.00000000
 
ion      s      p      d    tot
    1  0.089  0.040  0.037  0.166
    2  0.089  0.040  0.037  0.166
    3  0.035  0.160  0.000  0.195
    4  0.035  0.160  0.000  0.195
tot    0.248  0.399  0.075  0.722
 
band    16 # energy    2.87561991 # occ.  2.00000000
 
ion      s      p      d    tot
    1  0.000  0.101  0.017  0.118
    2  0.000  0.101  0.017  0.118
    3  0.000  0.232  0.000  0.232
    4  0.000  0.232  0.000  0.232
tot    0.000  0.666  0.034  0.700
 
band    17 # energy    3.99070590 # occ.  2.00000000
 
ion      s      p      d    tot
    1  0.006  0.067  0.038  0.110
    2  0.006  0.067  0.038  0.110
    3  0.001  0.248  0.000  0.249
    4  0.001  0.248  0.000  0.249
tot    0.013  0.631  0.075  0.719
 
band    18 # energy    4.49240802 # occ.  2.00000000
 
ion      s      p      d    tot
    1  0.000  0.058  0.043  0.101
    2  0.000  0.058  0.043  0.101
    3  0.000  0.278  0.000  0.278
    4  0.000  0.278  0.000  0.278