<?xml version="1.0" encoding="ISO-8859-1"?>
<modeling>
 <generator>
  <i name="program" type="string">vasp </i>
  <i name="version" type="string">6.3.1  </i>
  <i name="subversion" type="string">04May22 (build Jun 07 2022 20:23:04) complex                          parallel </i>
  <i name="platform" type="string">LinuxIFC </i>
  <i name="date" type="string">2024 03 28 </i>
  <i name="time" type="string">16:28:01 </i>
 </generator>
 <incar>
  <i type="string" name="PREC">Normal</i>
  <i type="string" name="ALGO">Normal</i>
  <i type="int" name="NELM">   100</i>
  <i type="int" name="IBRION">     2</i>
  <i name="EDIFF">      0.00000000</i>
  <i name="EDIFFG">     -0.00500000</i>
  <i type="int" name="NSW">    20</i>
  <i type="int" name="ISIF">     3</i>
  <i name="ENCUT">    400.00000000</i>
  <i type="logical" name="LREAL"> F  </i>
  <i type="int" name="ISMEAR">     0</i>
  <i name="SIGMA">      0.10000000</i>
  <i type="logical" name="LWAVE"> F  </i>
  <i type="logical" name="LCHARG"> F  </i>
  <i type="int" name="LORBIT">    10</i>
  <i type="logical" name="LASPH"> T  </i>
 </incar>
 <primitive_cell>
  <structure name="primitive_cell" >
   <crystal>
    <varray name="basis" >
     <v>       3.18000007       0.00000000       0.00000000 </v>
     <v>      -1.59000003       2.75396084       0.00000000 </v>
     <v>       0.00000000       0.00000000       5.16599989 </v>
    </varray>
    <i name="volume">     45.24173822 </i>
    <varray name="rec_basis" >
     <v>       0.31446540       0.18155668       0.00000000 </v>
     <v>       0.00000000       0.36311337       0.00000000 </v>
     <v>       0.00000000       0.00000000       0.19357337 </v>
    </varray>
   </crystal>
   <varray name="positions" >
    <v>       0.33333333       0.66666667       0.00000000 </v>
    <v>       0.66666667       0.33333333       0.50000000 </v>
    <v>       0.33333333       0.66666667       0.37500000 </v>
    <v>       0.66666667       0.33333333       0.87500000 </v>
   </varray>
  </structure>
  <varray name="primitive_index" >
   <v type="int" >        1 </v>
   <v type="int" >        2 </v>
   <v type="int" >        3 </v>
   <v type="int" >        4 </v>
  </varray>
 </primitive_cell>
 <kpoints>
  <generation param="Gamma">
   <v type="int" name="divisions">      12       12        7 </v>
   <v name="usershift">      0.00000000       0.00000000       0.00000000 </v>
   <v name="genvec1">      0.08333333      -0.00000000       0.00000000 </v>
   <v name="genvec2">      0.00000000       0.08333333       0.00000000 </v>
   <v name="genvec3">      0.00000000       0.00000000       0.14285714 </v>
   <v name="shift">      0.00000000       0.00000000       0.00000000 </v>
  </generation>
  <varray name="kpointlist" >
   <v>       0.00000000       0.00000000       0.00000000 </v>
   <v>       0.08333333       0.00000000       0.00000000 </v>
   <v>       0.16666667       0.00000000       0.00000000 </v>
   <v>       0.25000000       0.00000000       0.00000000 </v>
   <v>       0.33333333       0.00000000       0.00000000 </v>
   <v>       0.41666667       0.00000000       0.00000000 </v>
   <v>       0.50000000       0.00000000       0.00000000 </v>
   <v>       0.08333333       0.08333333       0.00000000 </v>
   <v>       0.16666667       0.08333333       0.00000000 </v>
   <v>       0.25000000       0.08333333       0.00000000 </v>
   <v>       0.33333333       0.08333333       0.00000000 </v>
   <v>       0.41666667       0.08333333       0.00000000 </v>
   <v>       0.16666667       0.16666667       0.00000000 </v>
   <v>       0.25000000       0.16666667       0.00000000 </v>
   <v>       0.33333333       0.16666667       0.00000000 </v>
   <v>       0.41666667       0.16666667       0.00000000 </v>
   <v>       0.25000000       0.25000000       0.00000000 </v>
   <v>       0.33333333       0.25000000       0.00000000 </v>
   <v>       0.33333333       0.33333333       0.00000000 </v>
   <v>       0.00000000       0.00000000       0.14285714 </v>
   <v>       0.08333333       0.00000000       0.14285714 </v>
   <v>       0.16666667       0.00000000       0.14285714 </v>
   <v>       0.25000000       0.00000000       0.14285714 </v>
   <v>       0.33333333       0.00000000       0.14285714 </v>
   <v>       0.41666667       0.00000000       0.14285714 </v>
   <v>       0.50000000       0.00000000       0.14285714 </v>
   <v>       0.08333333       0.08333333       0.14285714 </v>
   <v>       0.16666667       0.08333333       0.14285714 </v>
   <v>       0.25000000       0.08333333       0.14285714 </v>
   <v>       0.33333333       0.08333333       0.14285714 </v>
   <v>       0.41666667       0.08333333       0.14285714 </v>
   <v>       0.16666667       0.16666667       0.14285714 </v>
   <v>       0.25000000       0.16666667       0.14285714 </v>
   <v>       0.33333333       0.16666667       0.14285714 </v>
   <v>       0.41666667       0.16666667       0.14285714 </v>
   <v>       0.25000000       0.25000000       0.14285714 </v>
   <v>       0.33333333       0.25000000       0.14285714 </v>
   <v>       0.33333333       0.33333333       0.14285714 </v>
   <v>       0.00000000       0.00000000       0.28571429 </v>
   <v>       0.08333333       0.00000000       0.28571429 </v>
   <v>       0.16666667       0.00000000       0.28571429 </v>
   <v>       0.25000000       0.00000000       0.28571429 </v>
   <v>       0.33333333       0.00000000       0.28571429 </v>
   <v>       0.41666667       0.00000000       0.28571429 </v>
   <v>       0.50000000       0.00000000       0.28571429 </v>
   <v>       0.08333333       0.08333333       0.28571429 </v>
   <v>       0.16666667       0.08333333       0.28571429 </v>
   <v>       0.25000000       0.08333333       0.28571429 </v>
   <v>       0.33333333       0.08333333       0.28571429 </v>
   <v>       0.41666667       0.08333333       0.28571429 </v>
   <v>       0.16666667       0.16666667       0.28571429 </v>
   <v>       0.25000000       0.16666667       0.28571429 </v>
   <v>       0.33333333       0.16666667       0.28571429 </v>
   <v>       0.41666667       0.16666667       0.28571429 </v>
   <v>       0.25000000       0.25000000       0.28571429 </v>
   <v>       0.33333333       0.25000000       0.28571429 </v>
   <v>       0.33333333       0.33333333       0.28571429 </v>
   <v>       0.00000000       0.00000000       0.42857143 </v>
   <v>       0.08333333       0.00000000       0.42857143 </v>
   <v>       0.16666667       0.00000000       0.42857143 </v>
   <v>       0.25000000       0.00000000       0.42857143 </v>
   <v>       0.33333333       0.00000000       0.42857143 </v>
   <v>       0.41666667       0.00000000       0.42857143 </v>
   <v>       0.50000000       0.00000000       0.42857143 </v>
   <v>       0.08333333       0.08333333       0.42857143 </v>
   <v>       0.16666667       0.08333333       0.42857143 </v>
   <v>       0.25000000       0.08333333       0.42857143 </v>
   <v>       0.33333333       0.08333333       0.42857143 </v>
   <v>       0.41666667       0.08333333       0.42857143 </v>
   <v>       0.16666667       0.16666667       0.42857143 </v>
   <v>       0.25000000       0.16666667       0.42857143 </v>
   <v>       0.33333333       0.16666667       0.42857143 </v>
   <v>       0.41666667       0.16666667       0.42857143 </v>
   <v>       0.25000000       0.25000000       0.42857143 </v>
   <v>       0.33333333       0.25000000       0.42857143 </v>
   <v>       0.33333333       0.33333333       0.42857143 </v>
  </varray>
  <varray name="weights" >
   <v>       0.00099206 </v>
   <v>       0.00595238 </v>
   <v>       0.00595238 </v>
   <v>       0.00595238 </v>
   <v>       0.00595238 </v>
   <v>       0.00595238 </v>
   <v>       0.00297619 </v>
   <v>       0.00595238 </v>
   <v>       0.01190476 </v>
   <v>       0.01190476 </v>
   <v>       0.01190476 </v>
   <v>       0.01190476 </v>
   <v>       0.00595238 </v>
   <v>       0.01190476 </v>
   <v>       0.01190476 </v>
   <v>       0.00595238 </v>
   <v>       0.00595238 </v>
   <v>       0.01190476 </v>
   <v>       0.00198413 </v>
   <v>       0.00198413 </v>
   <v>       0.01190476 </v>
   <v>       0.01190476 </v>
   <v>       0.01190476 </v>
   <v>       0.01190476 </v>
   <v>       0.01190476 </v>
   <v>       0.00595238 </v>
   <v>       0.01190476 </v>
   <v>       0.02380952 </v>
   <v>       0.02380952 </v>
   <v>       0.02380952 </v>
   <v>       0.02380952 </v>
   <v>       0.01190476 </v>
   <v>       0.02380952 </v>
   <v>       0.02380952 </v>
   <v>       0.01190476 </v>
   <v>       0.01190476 </v>
   <v>       0.02380952 </v>
   <v>       0.00396825 </v>
   <v>       0.00198413 </v>
   <v>       0.01190476 </v>
   <v>       0.01190476 </v>
   <v>       0.01190476 </v>
   <v>       0.01190476 </v>
   <v>       0.01190476 </v>
   <v>       0.00595238 </v>
   <v>       0.01190476 </v>
   <v>       0.02380952 </v>
   <v>       0.02380952 </v>
   <v>       0.02380952 </v>
   <v>       0.02380952 </v>
   <v>       0.01190476 </v>
   <v>       0.02380952 </v>
   <v>       0.02380952 </v>
   <v>       0.01190476 </v>
   <v>       0.01190476 </v>
   <v>       0.02380952 </v>
   <v>       0.00396825 </v>
   <v>       0.00198413 </v>
   <v>       0.01190476 </v>
   <v>       0.01190476 </v>
   <v>       0.01190476 </v>
   <v>       0.01190476 </v>
   <v>       0.01190476 </v>
   <v>       0.00595238 </v>
   <v>       0.01190476 </v>
   <v>       0.02380952 </v>
   <v>       0.02380952 </v>
   <v>       0.02380952 </v>
   <v>       0.02380952 </v>
   <v>       0.01190476 </v>
   <v>       0.02380952 </v>
   <v>       0.02380952 </v>
   <v>       0.01190476 </v>
   <v>       0.01190476 </v>
   <v>       0.02380952 </v>
   <v>       0.00396825 </v>
  </varray>
 </kpoints>
 <parameters>
  <separator name="general" >
   <i type="string" name="SYSTEM">unknown system</i>
   <i type="logical" name="LCOMPAT"> F  </i>
  </separator>
  <separator name="electronic" >
   <i type="string" name="PREC">normal</i>
   <i name="ENMAX">    400.00000000</i>
   <i name="ENAUG">    627.11200000</i>
   <i name="EDIFF">      0.00000000</i>
   <i type="int" name="IALGO">    38</i>
   <i type="int" name="IWAVPR">    11</i>
   <i type="int" name="NBANDS">    24</i>
   <i type="int" name="NBANDSLOW">    -1</i>
   <i type="int" name="NBANDSHIGH">    -1</i>
   <i name="NELECT">     36.00000000</i>
   <i type="int" name="TURBO">     0</i>
   <i type="int" name="IRESTART">     0</i>
   <i type="int" name="NREBOOT">     0</i>
   <i type="int" name="NMIN">     0</i>
   <i name="EREF">      0.00000000</i>
   <separator name="electronic smearing" >
    <i type="int" name="ISMEAR">     0</i>
    <i name="SIGMA">      0.10000000</i>
    <i name="KSPACING">      0.50000000</i>
    <i type="logical" name="KGAMMA"> T  </i>
    <i type="logical" name="KBLOWUP"> T  </i>
   </separator>
   <separator name="electronic projectors" >
    <i type="logical" name="LREAL"> F  </i>
    <v name="ROPT">      0.00000000      0.00000000</v>
    <i type="int" name="LMAXPAW">  -100</i>
    <i type="int" name="LMAXMIX">     2</i>
    <i type="logical" name="NLSPLINE"> F  </i>
   </separator>
   <separator name="electronic startup" >
    <i type="int" name="ISTART">     0</i>
    <i type="int" name="ICHARG">     2</i>
    <i type="int" name="INIWAV">     1</i>
   </separator>
   <separator name="electronic spin" >
    <i type="int" name="ISPIN">     1</i>
    <i type="logical" name="LNONCOLLINEAR"> F  </i>
    <v name="MAGMOM">      1.00000000      1.00000000      1.00000000      1.00000000</v>
    <i name="NUPDOWN">     -1.00000000</i>
    <i type="logical" name="LSORBIT"> F  </i>
    <v name="SAXIS">      0.00000000      0.00000000      1.00000000</v>
    <i type="logical" name="LSPIRAL"> F  </i>
    <v name="QSPIRAL">      0.00000000      0.00000000      0.00000000</v>
    <i type="logical" name="LZEROZ"> F  </i>
   </separator>
   <separator name="electronic exchange-correlation" >
    <i type="logical" name="LASPH"> T  </i>
    <i type="logical" name="LMETAGGA"> F  </i>
   </separator>
   <separator name="electronic convergence" >
    <i type="int" name="NELM">   100</i>
    <i type="int" name="NELMDL">    -5</i>
    <i type="int" name="NELMIN">     2</i>
    <i name="ENINI">    400.00000000</i>
    <separator name="electronic convergence detail" >
     <i type="logical" name="LDIAG"> T  </i>
     <i type="logical" name="LSUBROT"> F  </i>
     <i name="WEIMIN">      0.00100000</i>
     <i name="EBREAK">      0.00000000</i>
     <i name="DEPER">      0.30000000</i>
     <i type="int" name="NRMM">     4</i>
     <i name="TIME">      0.40000000</i>
    </separator>
   </separator>
   <separator name="electronic mixer" >
    <i name="AMIX">      0.40000000</i>
    <i name="BMIX">      1.00000000</i>
    <i name="AMIN">      0.10000000</i>
    <i name="AMIX_MAG">      1.60000000</i>
    <i name="BMIX_MAG">      1.00000000</i>
    <separator name="electronic mixer details" >
     <i type="int" name="IMIX">     4</i>
     <i type="logical" name="MIXFIRST"> F  </i>
     <i type="int" name="MAXMIX">   -45</i>
     <i name="WC">    100.00000000</i>
     <i type="int" name="INIMIX">     1</i>
     <i type="int" name="MIXPRE">     1</i>
     <i type="int" name="MREMOVE">     5</i>
    </separator>
   </separator>
   <separator name="electronic dipolcorrection" >
    <i type="logical" name="LDIPOL"> F  </i>
    <i type="logical" name="LMONO"> F  </i>
    <i type="int" name="IDIPOL">     0</i>
    <i name="EPSILON">      1.00000000</i>
    <v name="DIPOL">   -100.00000000   -100.00000000   -100.00000000</v>
    <i name="EFIELD">      0.00000000</i>
   </separator>
  </separator>
  <separator name="grids" >
   <i type="int" name="NGX">    16</i>
   <i type="int" name="NGY">    16</i>
   <i type="int" name="NGZ">    28</i>
   <i type="int" name="NGXF">    32</i>
   <i type="int" name="NGYF">    32</i>
   <i type="int" name="NGZF">    56</i>
   <i type="logical" name="ADDGRID"> F  </i>
  </separator>
  <separator name="ionic" >
   <i type="int" name="NSW">    20</i>
   <i type="int" name="IBRION">     2</i>
   <i type="int" name="MDALGO">     0</i>
   <i type="int" name="ISIF">     3</i>
   <i name="PSTRESS">      0.00000000</i>
   <i name="EDIFFG">     -0.00500000</i>
   <i type="int" name="NFREE">     1</i>
   <i name="POTIM">      0.50000000</i>
   <i name="SMASS">     -3.00000000</i>
   <i name="SCALEE">      1.00000000</i>
  </separator>
  <separator name="ionic md" >
   <i name="TEBEG">      0.00010000</i>
   <i name="TEEND">      0.00010000</i>
   <i type="int" name="NBLOCK">     1</i>
   <i type="int" name="KBLOCK">    20</i>
   <i type="int" name="NPACO">   256</i>
   <i name="APACO">     10.00000000</i>
  </separator>
  <separator name="symmetry" >
   <i type="int" name="ISYM">     2</i>
   <i name="SYMPREC">      0.00001000</i>
  </separator>
  <separator name="dos" >
   <i type="int" name="LORBIT">    10</i>
   <v name="RWIGS">     -1.00000000     -1.00000000</v>
   <i type="int" name="NEDOS">   301</i>
   <i name="EMIN">     10.00000000</i>
   <i name="EMAX">    -10.00000000</i>
   <i name="EFERMI">      0.00000000</i>
  </separator>
  <separator name="writing" >
   <i type="int" name="NWRITE">     2</i>
   <i type="logical" name="LWAVE"> F  </i>
   <i type="logical" name="LDOWNSAMPLE"> F  </i>
   <i type="logical" name="LCHARG"> F  </i>
   <i type="logical" name="LPARD"> F  </i>
   <i type="logical" name="LVTOT"> F  </i>
   <i type="logical" name="LVHAR"> F  </i>
   <i type="logical" name="LELF"> F  </i>
   <i type="logical" name="LOPTICS"> F  </i>
   <v name="STM">      0.00000000      0.00000000      0.00000000      0.00000000      0.00000000      0.00000000      0.00000000</v>
  </separator>
  <separator name="performance" >
   <i type="int" name="NPAR">     8</i>
   <i type="int" name="NSIM">     4</i>
   <i type="int" name="NBLK">    -1</i>
   <i type="logical" name="LPLANE"> T  </i>
   <i type="logical" name="LSCALAPACK"> T  </i>
   <i type="logical" name="LSCAAWARE"> F  </i>
   <i type="logical" name="LSCALU"> F  </i>
   <i type="logical" name="LASYNC"> F  </i>
   <i type="logical" name="LORBITALREAL"> F  </i>
  </separator>
  <separator name="miscellaneous" >
   <i type="int" name="IDIOT">     3</i>
   <i type="int" name="PHON_NSTRUCT">    -1</i>
   <i type="logical" name="LMUSIC"> F  </i>
   <v name="POMASS">     69.72300000     14.00100000</v>
   <v name="DARWINR">      0.00000000      0.00000000</v>
   <v name="DARWINV">      1.00000000      1.00000000</v>
   <i type="logical" name="LCORR"> T  </i>
  </separator>
  <i type="logical" name="GGA_COMPAT"> T  </i>
  <i type="logical" name="LBERRY"> F  </i>
  <i type="int" name="ICORELEVEL">     0</i>
  <i type="logical" name="LDAU"> F  </i>
  <i type="int" name="I_CONSTRAINED_M">     0</i>
  <separator name="electronic exchange-correlation" >
   <i type="string" name="GGA">--</i>
   <i type="int" name="VOSKOWN">     0</i>
   <i type="logical" name="LHFCALC"> F  </i>
   <i type="string" name="PRECFOCK"></i>
   <i type="logical" name="LSYMGRAD"> F  </i>
   <i type="logical" name="LHFONE"> F  </i>
   <i type="logical" name="LRHFCALC"> F  </i>
   <i type="logical" name="LTHOMAS"> F  </i>
   <i type="logical" name="LMODELHF"> F  </i>
   <i type="logical" name="LFOCKACE"> F  </i>
   <i name="ENCUT4O">     -1.00000000</i>
   <i type="int" name="EXXOEP">     0</i>
   <i type="int" name="FOURORBIT">     0</i>
   <i name="AEXX">      0.00000000</i>
   <i name="HFALPHA">      0.00000000</i>
   <i name="MCALPHA">      0.00000000</i>
   <i name="ALDAX">      1.00000000</i>
   <i name="AGGAX">      1.00000000</i>
   <i name="ALDAC">      1.00000000</i>
   <i name="AGGAC">      1.00000000</i>
   <i type="int" name="NKREDX">     1</i>
   <i type="int" name="NKREDY">     1</i>
   <i type="int" name="NKREDZ">     1</i>
   <i type="logical" name="SHIFTRED"> F  </i>
   <i type="logical" name="ODDONLY"> F  </i>
   <i type="logical" name="EVENONLY"> F  </i>
   <i type="int" name="LMAXFOCK">     0</i>
   <i type="int" name="NMAXFOCKAE">     0</i>
   <i type="logical" name="LFOCKAEDFT"> F  </i>
   <i name="HFSCREEN">      0.00000000</i>
   <i name="HFSCREENC">      0.00000000</i>
   <i type="int" name="NBANDSGWLOW">     0</i>
  </separator>
  <separator name="vdW DFT" >
   <i type="logical" name="LUSE_VDW"> F  </i>
   <i name="Zab_VDW">     -0.84910000</i>
   <i name="PARAM1">      0.12340000</i>
   <i name="PARAM2">      1.00000000</i>
   <i name="PARAM3">      0.00000000</i>
  </separator>
  <separator name="model GW" >
   <i type="int" name="MODEL_GW">     0</i>
   <i name="MODEL_EPS0">      6.78626073</i>
   <i name="MODEL_ALPHA">      1.00000000</i>
  </separator>
  <separator name="linear response parameters" >
   <i type="logical" name="LEPSILON"> F  </i>
   <i type="logical" name="LRPA"> F  </i>
   <i type="logical" name="LNABLA"> F  </i>
   <i type="logical" name="LVEL"> F  </i>
   <i name="CSHIFT">      0.10000000</i>
   <i name="OMEGAMAX">     -1.00000000</i>
   <i name="DEG_THRESHOLD">      0.00200000</i>
   <i name="RTIME">     -0.10000000</i>
   <i name="WPLASMAI">      0.00000000</i>
   <v name="DFIELD">      0.00000000      0.00000000      0.00000000</v>
   <v name="WPLASMA">      0.00000000      0.00000000      0.00000000      0.00000000      0.00000000      0.00000000      0.00000000      0.00000000      0.00000000</v>
  </separator>
  <separator name="orbital magnetization" >
   <i type="logical" name="NUCIND"> F  </i>
   <v name="MAGPOS">      0.00000000      0.00000000      0.00000000</v>
   <i type="logical" name="LNICSALL"> T  </i>
   <i type="logical" name="ORBITALMAG"> F  </i>
   <i type="logical" name="LMAGBLOCH"> F  </i>
   <i type="logical" name="LCHIMAG"> F  </i>
   <i type="logical" name="LGAUGE"> T  </i>
   <i type="int" name="MAGATOM">     0</i>
   <v name="MAGDIPOL">      0.00000000      0.00000000      0.00000000</v>
   <v name="AVECCONST">      0.00000000      0.00000000      0.00000000</v>
  </separator>
  <separator name="response functions" >
   <i type="logical" name="LFINITE_TEMPERATURE"> F  </i>
   <i type="logical" name="LADDER"> F  </i>
   <i type="logical" name="LRPAFORCE"> F  </i>
   <i type="logical" name="LFXC"> F  </i>
   <i type="logical" name="LHARTREE"> T  </i>
   <i type="int" name="IBSE">     0</i>
   <v type="int" name="KPOINT">    -1     0     0     0</v>
   <i type="logical" name="LTCTC"> F  </i>
   <i type="logical" name="LTCTE"> F  </i>
   <i type="logical" name="LTETE"> F  </i>
   <i type="logical" name="LTRIPLET"> F  </i>
   <i type="logical" name="LFXCEPS"> F  </i>
   <i type="logical" name="LFXHEG"> F  </i>
   <i type="int" name="NATURALO">     2</i>
   <i type="logical" name="LHOLEGF"> F  </i>
   <i type="logical" name="L2ORDER"> F  </i>
   <i type="logical" name="LDMP1"> F  </i>
   <i type="logical" name="LMP2LT"> F  </i>
   <i type="logical" name="LSMP2LT"> F  </i>
   <i type="logical" name="LGWLF"> F  </i>
   <i name="ENCUTGW">     -2.00000000</i>
   <i name="ENCUTGWSOFT">     -2.00000000</i>
   <i name="ENCUTLF">     -1.00000000</i>
   <i type="logical" name="LESF_SPLINES"> F  </i>
   <i type="int" name="LMAXMP2">    -1</i>
   <i name="SCISSOR">      0.00000000</i>
   <i type="int" name="NOMEGA">     0</i>
   <i type="int" name="NOMEGAR">     0</i>
   <i type="int" name="NBANDSGW">    -1</i>
   <i type="int" name="NBANDSO">    -1</i>
   <i type="int" name="NBANDSV">    -1</i>
   <i type="int" name="NELMGW">     1</i>
   <i type="int" name="NELMHF">     1</i>
   <i type="int" name="DIM">     3</i>
   <i type="int" name="IESPILON">     4</i>
   <i type="int" name="ANTIRES">     0</i>
   <i name="OMEGAMAX">    -30.00000000</i>
   <i name="OMEGAMIN">    -30.00000000</i>
   <i name="OMEGATL">   -200.00000000</i>
   <i type="int" name="OMEGAGRID">     0</i>
   <i name="CSHIFT">     -0.10000000</i>
   <i type="logical" name="LSELFENERGY"> F  </i>
   <i type="logical" name="LSPECTRAL"> F  </i>
   <i type="logical" name="LSPECTRALGW"> F  </i>
   <i type="logical" name="LSINGLES"> F  </i>
   <i type="logical" name="LFERMIGW"> F  </i>
   <i type="logical" name="ODDONLYGW"> F  </i>
   <i type="logical" name="EVENONLYGW"> F  </i>
   <i type="int" name="NKREDLFX">     1</i>
   <i type="int" name="NKREDLFY">     1</i>
   <i type="int" name="NKREDLFZ">     1</i>
   <i type="int" name="MAXMEM">  2800</i>
   <i type="int" name="TELESCOPE">     0</i>
   <i type="int" name="NTAUPAR">    -1</i>
   <i type="int" name="NOMEGAPAR">    -1</i>
   <i name="DAMP_NEWTON">      0.80000001</i>
   <i name="LAMBDA">      1.00000000</i>
  </separator>
  <separator name="External order field" >
   <i name="OFIELD_KAPPA">      0.00000000</i>
   <v name="OFIELD_K">      0.00000000      0.00000000      0.00000000</v>
   <i name="OFIELD_Q6_NEAR">      0.00000000</i>
   <i name="OFIELD_Q6_FAR">      0.00000000</i>
   <i name="OFIELD_A">      0.00000000</i>
  </separator>
  <separator name="optional k-points parameters" >
   <i type="int" name="KPOINTS_OPT_MODE">     1</i>
   <i type="logical" name="LKPOINTS_OPT"> F  </i>
  </separator>
 </parameters>
 <atominfo>
  <atoms>       4 </atoms>
  <types>       2 </types>
  <array name="atoms" >
   <dimension dim="1">ion</dimension>
   <field type="string">element</field>
   <field type="int">atomtype</field>
   <set>
    <rc><c>Ga</c><c>   1</c></rc>
    <rc><c>Ga</c><c>   1</c></rc>
    <rc><c>N </c><c>   2</c></rc>
    <rc><c>N </c><c>   2</c></rc>
   </set>
  </array>
  <array name="atomtypes" >
   <dimension dim="1">type</dimension>
   <field type="int">atomspertype</field>
   <field type="string">element</field>
   <field>mass</field>
   <field>valence</field>
   <field type="string">pseudopotential</field>
   <set>
    <rc><c>   2</c><c>Ga</c><c>     69.72300000</c><c>     13.00000000</c><c>  PAW_PBE Ga_d 06Jul2010                </c></rc>
    <rc><c>   2</c><c>N </c><c>     14.00100000</c><c>      5.00000000</c><c>  PAW_PBE N 08Apr2002                   </c></rc>
   </set>
  </array>
 </atominfo>
 <structure name="initialpos" >
  <crystal>
   <varray name="basis" >
    <v>       3.18000007       0.00000000       0.00000000 </v>
    <v>      -1.59000003       2.75396084       0.00000000 </v>
    <v>       0.00000000       0.00000000       5.16599989 </v>
   </varray>
   <i name="volume">     45.24173822 </i>
   <varray name="rec_basis" >
    <v>       0.31446540       0.18155668       0.00000000 </v>
    <v>       0.00000000       0.36311337       0.00000000 </v>
    <v>       0.00000000       0.00000000       0.19357337 </v>
   </varray>
  </crystal>
  <varray name="positions" >
   <v>       0.33333333       0.66666667       0.00000000 </v>
   <v>       0.66666667       0.33333333       0.50000000 </v>
   <v>       0.33333333       0.66666667       0.37500000 </v>
   <v>       0.66666667       0.33333333       0.87500000 </v>
  </varray>
 </structure>
 <calculation>
  <scstep>
   <time name="dav">    0.10    0.16</time>
   <time name="total">    0.24    0.32</time>
   <energy>
    <i name="alphaZ">    199.60645165 </i>
    <i name="ewald">  -3183.85810762 </i>
    <i name="hartreedc">  -1150.69441055 </i>
    <i name="XCdc">    128.94449688 </i>
    <i name="pawpsdc">   3616.17691320 </i>
    <i name="pawaedc">  -4285.66495278 </i>
    <i name="eentropy">     -0.00732324 </i>
    <i name="bandstr">     90.40784165 </i>
    <i name="atom">   4826.58925392 </i>
    <i name="e_fr_energy">    241.50016311 </i>
    <i name="e_wo_entrp">    241.50748635 </i>
    <i name="e_0_energy">    241.50382473 </i>
   </energy>
  </scstep>
  <scstep>
   <time name="dav">    0.09    0.09</time>
   <time name="total">    0.09    0.09</time>
   <energy>
    <i name="e_fr_energy">     -0.14660128 </i>
    <i name="e_wo_entrp">     -0.14660128 </i>
    <i name="e_0_energy">     -0.14660128 </i>
   </energy>
  </scstep>
  <scstep>
   <time name="dav">    0.10    0.10</time>
   <time name="total">    0.10    0.11</time>
   <energy>
    <i name="e_fr_energy">    -27.54535827 </i>
    <i name="e_wo_entrp">    -27.54535827 </i>
    <i name="e_0_energy">    -27.54535827 </i>
   </energy>
  </scstep>
  <scstep>
   <time name="dav">    0.10    0.10</time>
   <time name="total">    0.10    0.10</time>
   <energy>
    <i name="e_fr_energy">    -28.28143143 </i>
    <i name="e_wo_entrp">    -28.28143143 </i>
    <i name="e_0_energy">    -28.28143143 </i>
   </energy>
  </scstep>
  <scstep>
   <time name="dav">    0.10    0.10</time>
   <time name="total">    0.10    0.11</time>
   <energy>
    <i name="e_fr_energy">    -28.29258857 </i>
    <i name="e_wo_entrp">    -28.29258857 </i>
    <i name="e_0_energy">    -28.29258857 </i>
   </energy>
  </scstep>
  <scstep>
   <time name="dav">    0.13    0.13</time>
   <time name="total">    0.27    0.27</time>
   <energy>
    <i name="e_fr_energy">    -24.20070761 </i>
    <i name="e_wo_entrp">    -24.20070761 </i>
    <i name="e_0_energy">    -24.20070761 </i>
   </energy>
  </scstep>
  <scstep>
   <time name="dav">    0.09    0.09</time>
   <time name="total">    0.22    0.22</time>
   <energy>
    <i name="e_fr_energy">    -24.30458893 </i>
    <i name="e_wo_entrp">    -24.30458893 </i>
    <i name="e_0_energy">    -24.30458893 </i>
   </energy>
  </scstep>
  <scstep>
   <time name="dav">    0.12    0.12</time>
   <time name="total">    0.25    0.26</time>
   <energy>
    <i name="e_fr_energy">    -24.30103928 </i>
    <i name="e_wo_entrp">    -24.30103928 </i>
    <i name="e_0_energy">    -24.30103928 </i>
   </energy>
  </scstep>
  <scstep>
   <time name="dav">    0.13    0.13</time>
   <time name="total">    0.27    0.27</time>
   <energy>
    <i name="e_fr_energy">    -24.28639537 </i>
    <i name="e_wo_entrp">    -24.28639537 </i>
    <i name="e_0_energy">    -24.28639537 </i>
   </energy>
  </scstep>
  <scstep>
   <time name="dav">    0.09    0.09</time>
   <time name="total">    0.22    0.23</time>
   <energy>
    <i name="e_fr_energy">    -24.28714196 </i>
    <i name="e_wo_entrp">    -24.28714196 </i>
    <i name="e_0_energy">    -24.28714196 </i>
   </energy>
  </scstep>
  <scstep>
   <time name="dav">    0.11    0.11</time>
   <time name="total">    0.25    0.25</time>
   <energy>
    <i name="e_fr_energy">    -24.28702106 </i>
    <i name="e_wo_entrp">    -24.28702106 </i>
    <i name="e_0_energy">    -24.28702106 </i>
   </energy>
  </scstep>
  <scstep>
   <time name="dav">    0.08    0.09</time>
   <time name="total">    0.22    0.22</time>
   <energy>
    <i name="e_fr_energy">    -24.28703130 </i>
    <i name="e_wo_entrp">    -24.28703130 </i>
    <i name="e_0_energy">    -24.28703130 </i>
   </energy>
  </scstep>
  <scstep>
   <time name="dav">    0.12    0.12</time>
   <time name="total">    0.25    0.25</time>
   <energy>
    <i name="e_fr_energy">    -24.28703259 </i>
    <i name="e_wo_entrp">    -24.28703259 </i>
    <i name="e_0_energy">    -24.28703259 </i>
   </energy>
  </scstep>
  <scstep>
   <time name="dav">    0.10    0.10</time>
   <time name="total">    0.24    0.24</time>
   <energy>
    <i name="e_fr_energy">    -24.28703233 </i>
    <i name="e_wo_entrp">    -24.28703233 </i>
    <i name="e_0_energy">    -24.28703233 </i>
   </energy>
  </scstep>
  <scstep>
   <time name="dav">    0.10    0.10</time>
   <time name="total">    0.24    0.24</time>
   <energy>
    <i name="e_fr_energy">    -24.28703237 </i>
    <i name="e_wo_entrp">    -24.28703237 </i>
    <i name="e_0_energy">    -24.28703237 </i>
   </energy>
  </scstep>
  <scstep>
   <time name="dav">    0.12    0.12</time>
   <time name="total">    0.26    0.26</time>
   <energy>
    <i name="e_fr_energy">    -24.28703236 </i>
    <i name="e_wo_entrp">    -24.28703236 </i>
    <i name="e_0_energy">    -24.28703236 </i>
   </energy>
  </scstep>
  <scstep>
   <time name="dav">    0.11    0.11</time>
   <time name="total">    0.25    0.25</time>
   <energy>
    <i name="e_fr_energy">    -24.28703237 </i>
    <i name="e_wo_entrp">    -24.28703237 </i>
    <i name="e_0_energy">    -24.28703237 </i>
   </energy>
  </scstep>
  <scstep>
   <time name="dav">    0.08    0.08</time>
   <time name="total">    0.21    0.21</time>
   <energy>
    <i name="e_fr_energy">    -24.28703237 </i>
    <i name="e_wo_entrp">    -24.28703237 </i>
    <i name="e_0_energy">    -24.28703237 </i>
   </energy>
  </scstep>
  <scstep>
   <time name="dav">    0.06    0.06</time>
   <time name="total">    0.19    0.20</time>
   <energy>
    <i name="alphaZ">    199.60645165 </i>
    <i name="ewald">  -3183.85810762 </i>
    <i name="hartreedc">  -1155.79274990 </i>
    <i name="XCdc">    130.18034339 </i>
    <i name="pawpsdc">   4512.62709874 </i>
    <i name="pawaedc">  -5190.28003198 </i>
    <i name="eentropy">     -0.00000000 </i>
    <i name="bandstr">   -163.35929056 </i>
    <i name="atom">   4826.58925392 </i>
    <i name="e_fr_energy">    -24.28703237 </i>
    <i name="e_wo_entrp">    -24.28703237 </i>
    <i name="e_0_energy">    -24.28703237 </i>
   </energy>
  </scstep>
  <structure>
   <crystal>
    <varray name="basis" >
     <v>       3.18000007       0.00000000       0.00000000 </v>
     <v>      -1.59000003       2.75396084       0.00000000 </v>
     <v>       0.00000000       0.00000000       5.16599989 </v>
    </varray>
    <i name="volume">     45.24173822 </i>
    <varray name="rec_basis" >
     <v>       0.31446540       0.18155668       0.00000000 </v>
     <v>       0.00000000       0.36311337       0.00000000 </v>
     <v>       0.00000000       0.00000000       0.19357337 </v>
    </varray>
   </crystal>
   <varray name="positions" >
    <v>       0.33333333       0.66666667       0.00000000 </v>
    <v>       0.66666667       0.33333333       0.50000000 </v>
    <v>       0.33333333       0.66666667       0.37500000 </v>
    <v>       0.66666667       0.33333333       0.87500000 </v>
   </varray>
  </structure>
  <varray name="forces" >
   <v>      -0.00000000       0.00000000      -0.13385588 </v>
   <v>       0.00000000       0.00000000      -0.13385588 </v>
   <v>      -0.00000000       0.00000000       0.13385588 </v>
   <v>       0.00000000      -0.00000000       0.13385588 </v>
  </varray>
  <varray name="stress" >
   <v>      31.36695896       0.00000000       0.00000000 </v>
   <v>       0.00000000      31.36695896      -0.00000000 </v>
   <v>       0.00000000       0.00000000      52.18002485 </v>
  </varray>
  <energy>
   <i name="e_fr_energy">    -24.28703237 </i>
   <i name="e_wo_entrp">    -24.28703237 </i>
   <i name="e_0_energy">    -24.28703237 </i>
  </energy>
  <time name="totalsc">    4.49    4.62</time>
 </calculation>
 <calculation>
  <scstep>
   <time name="dav">    0.10    0.10</time>
   <time name="total">    0.23    0.23</time>
   <energy>
    <i name="alphaZ">    191.99731571 </i>
    <i name="ewald">  -3142.91236303 </i>
    <i name="hartreedc">  -1140.88449238 </i>
    <i name="XCdc">    128.10364781 </i>
    <i name="pawpsdc">   4512.62945352 </i>
    <i name="pawaedc">  -5190.28244230 </i>
    <i name="eentropy">     -0.00000000 </i>
    <i name="bandstr">   -209.92434240 </i>
    <i name="atom">   4826.58925392 </i>
    <i name="e_fr_energy">    -24.68396915 </i>
    <i name="e_wo_entrp">    -24.68396915 </i>
    <i name="e_0_energy">    -24.68396915 </i>
   </energy>
  </scstep>
  <scstep>
   <time name="dav">    0.10    0.10</time>
   <time name="total">    0.24    0.24</time>
   <energy>
    <i name="e_fr_energy">    -24.38461043 </i>
    <i name="e_wo_entrp">    -24.38461043 </i>
    <i name="e_0_energy">    -24.38461043 </i>
   </energy>
  </scstep>
  <scstep>
   <time name="dav">    0.11    0.11</time>
   <time name="total">    0.25    0.25</time>
   <energy>
    <i name="e_fr_energy">    -24.29052338 </i>
    <i name="e_wo_entrp">    -24.29052338 </i>
    <i name="e_0_energy">    -24.29052338 </i>
   </energy>
  </scstep>
  <scstep>
   <time name="dav">    0.08    0.09</time>
   <time name="total">    0.22    0.22</time>
   <energy>
    <i name="e_fr_energy">    -24.28898938 </i>
    <i name="e_wo_entrp">    -24.28898938 </i>
    <i name="e_0_energy">    -24.28898938 </i>
   </energy>
  </scstep>
  <scstep>
   <time name="dav">    0.12    0.12</time>
   <time name="total">    0.25    0.25</time>
   <energy>
    <i name="e_fr_energy">    -24.28645883 </i>
    <i name="e_wo_entrp">    -24.28645883 </i>
    <i name="e_0_energy">    -24.28645883 </i>
   </energy>
  </scstep>
  <scstep>
   <time name="dav">    0.10    0.10</time>
   <time name="total">    0.23    0.23</time>
   <energy>
    <i name="e_fr_energy">    -24.28455780 </i>
    <i name="e_wo_entrp">    -24.28455780 </i>
    <i name="e_0_energy">    -24.28455780 </i>
   </energy>
  </scstep>
  <scstep>
   <time name="dav">    0.10    0.10</time>
   <time name="total">    0.24    0.24</time>
   <energy>
    <i name="e_fr_energy">    -24.28455296 </i>
    <i name="e_wo_entrp">    -24.28455296 </i>
    <i name="e_0_energy">    -24.28455296 </i>
   </energy>
  </scstep>
  <scstep>
   <time name="dav">    0.10    0.10</time>
   <time name="total">    0.24    0.24</time>
   <energy>
    <i name="e_fr_energy">    -24.28455445 </i>
    <i name="e_wo_entrp">    -24.28455445 </i>
    <i name="e_0_energy">    -24.28455445 </i>
   </energy>
  </scstep>
  <scstep>
   <time name="dav">    0.10    0.10</time>
   <time name="total">    0.23    0.23</time>
   <energy>
    <i name="e_fr_energy">    -24.28455415 </i>
    <i name="e_wo_entrp">    -24.28455415 </i>
    <i name="e_0_energy">    -24.28455415 </i>
   </energy>
  </scstep>
  <scstep>
   <time name="dav">    0.11    0.11</time>
   <time name="total">    0.25    0.25</time>
   <energy>
    <i name="e_fr_energy">    -24.28455417 </i>
    <i name="e_wo_entrp">    -24.28455417 </i>
    <i name="e_0_energy">    -24.28455417 </i>
   </energy>
  </scstep>
  <scstep>
   <time name="dav">    0.10    0.10</time>
   <time name="total">    0.23    0.23</time>
   <energy>
    <i name="e_fr_energy">    -24.28455423 </i>
    <i name="e_wo_entrp">    -24.28455423 </i>
    <i name="e_0_energy">    -24.28455423 </i>
   </energy>
  </scstep>
  <scstep>
   <time name="dav">    0.08    0.08</time>
   <time name="total">    0.21    0.21</time>
   <energy>
    <i name="e_fr_energy">    -24.28455423 </i>
    <i name="e_wo_entrp">    -24.28455423 </i>
    <i name="e_0_energy">    -24.28455423 </i>
   </energy>
  </scstep>
  <scstep>
   <time name="dav">    0.07    0.07</time>
   <time name="total">    0.20    0.20</time>
   <energy>
    <i name="e_fr_energy">    -24.28455422 </i>
    <i name="e_wo_entrp">    -24.28455422 </i>
    <i name="e_0_energy">    -24.28455422 </i>
   </energy>
  </scstep>
  <scstep>
   <time name="dav">    0.06    0.06</time>
   <time name="total">    0.20    0.20</time>
   <energy>
    <i name="e_fr_energy">    -24.28455423 </i>
    <i name="e_wo_entrp">    -24.28455423 </i>
    <i name="e_0_energy">    -24.28455423 </i>
   </energy>
  </scstep>
  <scstep>
   <time name="dav">    0.06    0.06</time>
   <time name="total">    0.19    0.19</time>
   <energy>
    <i name="alphaZ">    191.99731571 </i>
    <i name="ewald">  -3142.91236303 </i>
    <i name="hartreedc">  -1176.64734866 </i>
    <i name="XCdc">    129.69463598 </i>
    <i name="pawpsdc">   4425.71379443 </i>
    <i name="pawaedc">  -5102.51726392 </i>
    <i name="eentropy">     -0.00000000 </i>
    <i name="bandstr">   -176.20257866 </i>
    <i name="atom">   4826.58925392 </i>
    <i name="e_fr_energy">    -24.28455423 </i>
    <i name="e_wo_entrp">    -24.28455423 </i>
    <i name="e_0_energy">    -24.28455423 </i>
   </energy>
  </scstep>
  <structure>
   <crystal>
    <varray name="basis" >
     <v>       3.21397037       0.00000000       0.00000000 </v>
     <v>      -1.60698519       2.78337999      -0.00000000 </v>
     <v>       0.00000000       0.00000000       5.25780325 </v>
    </varray>
    <i name="volume">     47.03473483 </i>
    <varray name="rec_basis" >
     <v>       0.31114164       0.17963771       0.00000000 </v>
     <v>       0.00000000       0.35927541       0.00000000 </v>
     <v>      -0.00000000       0.00000000       0.19019350 </v>
    </varray>
   </crystal>
   <varray name="positions" >
    <v>       0.33333333       0.66666667      -0.00125001 </v>
    <v>       0.66666667       0.33333333       0.49874999 </v>
    <v>       0.33333333       0.66666667       0.37625001 </v>
    <v>       0.66666667       0.33333333       0.87625001 </v>
   </varray>
  </structure>
  <varray name="forces" >
   <v>       0.00000000       0.00000000       0.07888479 </v>
   <v>       0.00000000       0.00000000       0.07888479 </v>
   <v>      -0.00000000       0.00000000      -0.07888479 </v>
   <v>      -0.00000000      -0.00000000      -0.07888479 </v>
  </varray>
  <varray name="stress" >
   <v>     -33.66680009       0.00000000       0.00000000 </v>
   <v>       0.00000000     -33.66680009       0.00000000 </v>
   <v>      -0.00000000       0.00000000     -54.30388161 </v>
  </varray>
  <energy>
   <i name="e_fr_energy">    -24.28455423 </i>
   <i name="e_wo_entrp">    -24.28455423 </i>
   <i name="e_0_energy">    -24.28455423 </i>
  </energy>
  <time name="totalsc">    3.94    3.98</time>
 </calculation>
 <calculation>
  <scstep>
   <time name="dav">    0.10    0.10</time>
   <time name="total">    0.23    0.23</time>
   <energy>
    <i name="alphaZ">    195.97875580 </i>
    <i name="ewald">  -3164.50857506 </i>
    <i name="hartreedc">  -1184.70183672 </i>
    <i name="XCdc">    130.80327819 </i>
    <i name="pawpsdc">   4425.71249175 </i>
    <i name="pawaedc">  -5102.51596788 </i>
    <i name="eentropy">     -0.00000000 </i>
    <i name="bandstr">   -151.77200599 </i>
    <i name="atom">   4826.58925392 </i>
    <i name="e_fr_energy">    -24.41460598 </i>
    <i name="e_wo_entrp">    -24.41460598 </i>
    <i name="e_0_energy">    -24.41460598 </i>
   </energy>
  </scstep>
  <scstep>
   <time name="dav">    0.10    0.10</time>
   <time name="total">    0.23    0.23</time>
   <energy>
    <i name="e_fr_energy">    -24.32541572 </i>
    <i name="e_wo_entrp">    -24.32541572 </i>
    <i name="e_0_energy">    -24.32541572 </i>
   </energy>
  </scstep>
  <scstep>
   <time name="dav">    0.12    0.12</time>
   <time name="total">    0.25    0.25</time>
   <energy>
    <i name="e_fr_energy">    -24.30025331 </i>
    <i name="e_wo_entrp">    -24.30025331 </i>
    <i name="e_0_energy">    -24.30025331 </i>
   </energy>
  </scstep>
  <scstep>
   <time name="dav">    0.08    0.08</time>
   <time name="total">    0.22    0.22</time>
   <energy>
    <i name="e_fr_energy">    -24.29948770 </i>
    <i name="e_wo_entrp">    -24.29948770 </i>
    <i name="e_0_energy">    -24.29948770 </i>
   </energy>
  </scstep>
  <scstep>
   <time name="dav">    0.12    0.12</time>
   <time name="total">    0.25    0.25</time>
   <energy>
    <i name="e_fr_energy">    -24.29846692 </i>
    <i name="e_wo_entrp">    -24.29846692 </i>
    <i name="e_0_energy">    -24.29846692 </i>
   </energy>
  </scstep>
  <scstep>
   <time name="dav">    0.10    0.10</time>
   <time name="total">    0.23    0.24</time>
   <energy>
    <i name="e_fr_energy">    -24.29826039 </i>
    <i name="e_wo_entrp">    -24.29826039 </i>
    <i name="e_0_energy">    -24.29826039 </i>
   </energy>
  </scstep>
  <scstep>
   <time name="dav">    0.10    0.10</time>
   <time name="total">    0.24    0.24</time>
   <energy>
    <i name="e_fr_energy">    -24.29826008 </i>
    <i name="e_wo_entrp">    -24.29826008 </i>
    <i name="e_0_energy">    -24.29826008 </i>
   </energy>
  </scstep>
  <scstep>
   <time name="dav">    0.09    0.09</time>
   <time name="total">    0.23    0.23</time>
   <energy>
    <i name="e_fr_energy">    -24.29825999 </i>
    <i name="e_wo_entrp">    -24.29825999 </i>
    <i name="e_0_energy">    -24.29825999 </i>
   </energy>
  </scstep>
  <scstep>
   <time name="dav">    0.11    0.11</time>
   <time name="total">    0.24    0.24</time>
   <energy>
    <i name="e_fr_energy">    -24.29825992 </i>
    <i name="e_wo_entrp">    -24.29825992 </i>
    <i name="e_0_energy">    -24.29825992 </i>
   </energy>
  </scstep>
  <scstep>
   <time name="dav">    0.10    0.10</time>
   <time name="total">    0.23    0.24</time>
   <energy>
    <i name="e_fr_energy">    -24.29825993 </i>
    <i name="e_wo_entrp">    -24.29825993 </i>
    <i name="e_0_energy">    -24.29825993 </i>
   </energy>
  </scstep>
  <scstep>
   <time name="dav">    0.10    0.10</time>
   <time name="total">    0.23    0.23</time>
   <energy>
    <i name="alphaZ">    195.97875580 </i>
    <i name="ewald">  -3164.50857506 </i>
    <i name="hartreedc">  -1165.60714846 </i>
    <i name="XCdc">    129.94868519 </i>
    <i name="pawpsdc">   4470.65929900 </i>
    <i name="pawaedc">  -5147.89983440 </i>
    <i name="eentropy">     -0.00000000 </i>
    <i name="bandstr">   -169.45869593 </i>
    <i name="atom">   4826.58925392 </i>
    <i name="e_fr_energy">    -24.29825993 </i>
    <i name="e_wo_entrp">    -24.29825993 </i>
    <i name="e_0_energy">    -24.29825993 </i>
   </energy>
  </scstep>
  <structure>
   <crystal>
    <varray name="basis" >
     <v>       3.19597264       0.00000000       0.00000000 </v>
     <v>      -1.59798632       2.76779350      -0.00000000 </v>
     <v>       0.00000000       0.00000000       5.20916511 </v>
    </varray>
    <i name="volume">     46.07919259 </i>
    <varray name="rec_basis" >
     <v>       0.31289379       0.18064932       0.00000000 </v>
     <v>       0.00000000       0.36129863       0.00000000 </v>
     <v>      -0.00000000       0.00000000       0.19196934 </v>
    </varray>
   </crystal>
   <varray name="positions" >
    <v>       0.33333333       0.66666667      -0.00059931 </v>
    <v>       0.66666667       0.33333333       0.49940069 </v>
    <v>       0.33333333       0.66666667       0.37559931 </v>
    <v>       0.66666667       0.33333333       0.87559931 </v>
   </varray>
  </structure>
  <varray name="forces" >
   <v>      -0.00000000       0.00000000      -0.02105510 </v>
   <v>       0.00000000       0.00000000      -0.02105510 </v>
   <v>       0.00000000      -0.00000000       0.02105510 </v>
   <v>      -0.00000000      -0.00000000       0.02105510 </v>
  </varray>
  <varray name="stress" >
   <v>      -0.30116105       0.00000000       0.00000000 </v>
   <v>       0.00000000      -0.30116105      -0.00000000 </v>
   <v>       0.00000000       0.00000000      -1.27962713 </v>
  </varray>
  <energy>
   <i name="e_fr_energy">    -24.29825993 </i>
   <i name="e_wo_entrp">    -24.29825993 </i>
   <i name="e_0_energy">    -24.29825993 </i>
  </energy>
  <time name="totalsc">    3.11    3.15</time>
 </calculation>
 <calculation>
  <scstep>
   <time name="dav">    0.10    0.10</time>
   <time name="total">    0.23    0.23</time>
   <energy>
    <i name="alphaZ">    196.00040398 </i>
    <i name="ewald">  -3164.62496070 </i>
    <i name="hartreedc">  -1165.65028058 </i>
    <i name="XCdc">    129.95464321 </i>
    <i name="pawpsdc">   4470.66114626 </i>
    <i name="pawaedc">  -5147.90116890 </i>
    <i name="eentropy">     -0.00000000 </i>
    <i name="bandstr">   -169.32730052 </i>
    <i name="atom">   4826.58925392 </i>
    <i name="e_fr_energy">    -24.29826334 </i>
    <i name="e_wo_entrp">    -24.29826334 </i>
    <i name="e_0_energy">    -24.29826334 </i>
   </energy>
  </scstep>
  <scstep>
   <time name="dav">    0.10    0.10</time>
   <time name="total">    0.23    0.23</time>
   <energy>
    <i name="e_fr_energy">    -24.29826085 </i>
    <i name="e_wo_entrp">    -24.29826085 </i>
    <i name="e_0_energy">    -24.29826085 </i>
   </energy>
  </scstep>
  <scstep>
   <time name="dav">    0.12    0.12</time>
   <time name="total">    0.25    0.25</time>
   <energy>
    <i name="e_fr_energy">    -24.29826021 </i>
    <i name="e_wo_entrp">    -24.29826021 </i>
    <i name="e_0_energy">    -24.29826021 </i>
   </energy>
  </scstep>
  <scstep>
   <time name="dav">    0.08    0.08</time>
   <time name="total">    0.22    0.22</time>
   <energy>
    <i name="e_fr_energy">    -24.29826020 </i>
    <i name="e_wo_entrp">    -24.29826020 </i>
    <i name="e_0_energy">    -24.29826020 </i>
   </energy>
  </scstep>
  <scstep>
   <time name="dav">    0.12    0.12</time>
   <time name="total">    0.25    0.25</time>
   <energy>
    <i name="e_fr_energy">    -24.29826018 </i>
    <i name="e_wo_entrp">    -24.29826018 </i>
    <i name="e_0_energy">    -24.29826018 </i>
   </energy>
  </scstep>
  <scstep>
   <time name="dav">    0.09    0.09</time>
   <time name="total">    0.23    0.23</time>
   <energy>
    <i name="e_fr_energy">    -24.29826018 </i>
    <i name="e_wo_entrp">    -24.29826018 </i>
    <i name="e_0_energy">    -24.29826018 </i>
   </energy>
  </scstep>
  <scstep>
   <time name="dav">    0.06    0.06</time>
   <time name="total">    0.19    0.19</time>
   <energy>
    <i name="alphaZ">    196.00040398 </i>
    <i name="ewald">  -3164.62496070 </i>
    <i name="hartreedc">  -1165.54818616 </i>
    <i name="XCdc">    129.95008231 </i>
    <i name="pawpsdc">   4470.91084496 </i>
    <i name="pawaedc">  -5148.15314228 </i>
    <i name="eentropy">     -0.00000000 </i>
    <i name="bandstr">   -169.42255621 </i>
    <i name="atom">   4826.58925392 </i>
    <i name="e_fr_energy">    -24.29826018 </i>
    <i name="e_wo_entrp">    -24.29826018 </i>
    <i name="e_0_energy">    -24.29826018 </i>
   </energy>
  </scstep>
  <structure>
   <crystal>
    <varray name="basis" >
     <v>       3.19587614       0.00000000       0.00000000 </v>
     <v>      -1.59793807       2.76770992      -0.00000000 </v>
     <v>       0.00000000       0.00000000       5.20890432 </v>
    </varray>
    <i name="volume">     46.07410316 </i>
    <varray name="rec_basis" >
     <v>       0.31290324       0.18065477       0.00000000 </v>
     <v>       0.00000000       0.36130954       0.00000000 </v>
     <v>      -0.00000000       0.00000000       0.19197895 </v>
    </varray>
   </crystal>
   <varray name="positions" >
    <v>       0.33333333       0.66666667      -0.00059579 </v>
    <v>       0.66666667       0.33333333       0.49940421 </v>
    <v>       0.33333333       0.66666667       0.37559579 </v>
    <v>       0.66666667       0.33333333       0.87559579 </v>
   </varray>
  </structure>
  <varray name="forces" >
   <v>       0.00000000      -0.00000000      -0.02166275 </v>
   <v>      -0.00000000       0.00000000      -0.02166275 </v>
   <v>      -0.00000000      -0.00000000       0.02166275 </v>
   <v>       0.00000000       0.00000000       0.02166275 </v>
  </varray>
  <varray name="stress" >
   <v>      -0.03010210       0.00000000      -0.00000000 </v>
   <v>       0.00000000      -0.03010210      -0.00000000 </v>
   <v>       0.00000000       0.00000000      -0.87961940 </v>
  </varray>
  <energy>
   <i name="e_fr_energy">    -24.29826018 </i>
   <i name="e_wo_entrp">    -24.29826018 </i>
   <i name="e_0_energy">    -24.29826018 </i>
  </energy>
  <time name="totalsc">    2.13    2.15</time>
 </calculation>
 <calculation>
  <scstep>
   <time name="dav">    0.09    0.09</time>
   <time name="total">    0.23    0.23</time>
   <energy>
    <i name="alphaZ">    195.99527950 </i>
    <i name="ewald">  -3164.59741130 </i>
    <i name="hartreedc">  -1165.53801925 </i>
    <i name="XCdc">    129.94867588 </i>
    <i name="pawpsdc">   4470.91154145 </i>
    <i name="pawaedc">  -5148.15392746 </i>
    <i name="eentropy">     -0.00000000 </i>
    <i name="bandstr">   -169.45365316 </i>
    <i name="atom">   4826.58925392 </i>
    <i name="e_fr_energy">    -24.29826042 </i>
    <i name="e_wo_entrp">    -24.29826042 </i>
    <i name="e_0_energy">    -24.29826042 </i>
   </energy>
  </scstep>
  <scstep>
   <time name="dav">    0.10    0.10</time>
   <time name="total">    0.23    0.23</time>
   <energy>
    <i name="e_fr_energy">    -24.29826027 </i>
    <i name="e_wo_entrp">    -24.29826027 </i>
    <i name="e_0_energy">    -24.29826027 </i>
   </energy>
  </scstep>
  <scstep>
   <time name="dav">    0.12    0.12</time>
   <time name="total">    0.25    0.25</time>
   <energy>
    <i name="e_fr_energy">    -24.29826020 </i>
    <i name="e_wo_entrp">    -24.29826020 </i>
    <i name="e_0_energy">    -24.29826020 </i>
   </energy>
  </scstep>
  <scstep>
   <time name="dav">    0.08    0.08</time>
   <time name="total">    0.22    0.22</time>
   <energy>
    <i name="e_fr_energy">    -24.29826020 </i>
    <i name="e_wo_entrp">    -24.29826020 </i>
    <i name="e_0_energy">    -24.29826020 </i>
   </energy>
  </scstep>
  <scstep>
   <time name="dav">    0.06    0.06</time>
   <time name="total">    0.19    0.20</time>
   <energy>
    <i name="e_fr_energy">    -24.29826020 </i>
    <i name="e_wo_entrp">    -24.29826020 </i>
    <i name="e_0_energy">    -24.29826020 </i>
   </energy>
  </scstep>
  <scstep>
   <time name="dav">    0.06    0.06</time>
   <time name="total">    0.19    0.19</time>
   <energy>
    <i name="e_fr_energy">    -24.29826019 </i>
    <i name="e_wo_entrp">    -24.29826019 </i>
    <i name="e_0_energy">    -24.29826019 </i>
   </energy>
  </scstep>
  <scstep>
   <time name="dav">    0.06    0.06</time>
   <time name="total">    0.19    0.19</time>
   <energy>
    <i name="alphaZ">    195.99527950 </i>
    <i name="ewald">  -3164.59741130 </i>
    <i name="hartreedc">  -1165.56213976 </i>
    <i name="XCdc">    129.94975215 </i>
    <i name="pawpsdc">   4470.85447298 </i>
    <i name="pawaedc">  -5148.09629094 </i>
    <i name="eentropy">     -0.00000000 </i>
    <i name="bandstr">   -169.43117673 </i>
    <i name="atom">   4826.58925392 </i>
    <i name="e_fr_energy">    -24.29826019 </i>
    <i name="e_wo_entrp">    -24.29826019 </i>
    <i name="e_0_energy">    -24.29826019 </i>
   </energy>
  </scstep>
  <structure>
   <crystal>
    <varray name="basis" >
     <v>       3.19589898       0.00000000       0.00000000 </v>
     <v>      -1.59794949       2.76772971      -0.00000000 </v>
     <v>       0.00000000       0.00000000       5.20896605 </v>
    </varray>
    <i name="volume">     46.07530781 </i>
    <varray name="rec_basis" >
     <v>       0.31290100       0.18065348       0.00000000 </v>
     <v>       0.00000000       0.36130696       0.00000000 </v>
     <v>      -0.00000000       0.00000000       0.19197668 </v>
    </varray>
   </crystal>
   <varray name="positions" >
    <v>       0.33333333       0.66666667      -0.00059662 </v>
    <v>       0.66666667       0.33333333       0.49940338 </v>
    <v>       0.33333333       0.66666667       0.37559662 </v>
    <v>       0.66666667       0.33333333       0.87559662 </v>
   </varray>
  </structure>
  <varray name="forces" >
   <v>      -0.00000000       0.00000000      -0.02150973 </v>
   <v>       0.00000000      -0.00000000      -0.02150973 </v>
   <v>       0.00000000      -0.00000000       0.02150973 </v>
   <v>      -0.00000000       0.00000000       0.02150973 </v>
  </varray>
  <varray name="stress" >
   <v>      -0.09192845       0.00000000       0.00000000 </v>
   <v>       0.00000000      -0.09192845       0.00000000 </v>
   <v>       0.00000000       0.00000000      -0.97125384 </v>
  </varray>
  <energy>
   <i name="e_fr_energy">    -24.29826019 </i>
   <i name="e_wo_entrp">    -24.29826019 </i>
   <i name="e_0_energy">    -24.29826019 </i>
  </energy>
  <time name="totalsc">    2.04    2.06</time>
 </calculation>
 <calculation>
  <scstep>
   <time name="dav">    0.08    0.08</time>
   <time name="total">    0.21    0.22</time>
   <energy>
    <i name="alphaZ">    196.05190078 </i>
    <i name="ewald">  -3164.88246894 </i>
    <i name="hartreedc">  -1165.69201698 </i>
    <i name="XCdc">    129.96540169 </i>
    <i name="pawpsdc">   4470.85430258 </i>
    <i name="pawaedc">  -5148.09609050 </i>
    <i name="eentropy">     -0.00000000 </i>
    <i name="bandstr">   -169.08858040 </i>
    <i name="atom">   4826.58925392 </i>
    <i name="e_fr_energy">    -24.29829785 </i>
    <i name="e_wo_entrp">    -24.29829785 </i>
    <i name="e_0_energy">    -24.29829785 </i>
   </energy>
  </scstep>
  <scstep>
   <time name="dav">    0.09    0.09</time>
   <time name="total">    0.23    0.23</time>
   <energy>
    <i name="e_fr_energy">    -24.29831836 </i>
    <i name="e_wo_entrp">    -24.29831836 </i>
    <i name="e_0_energy">    -24.29831836 </i>
   </energy>
  </scstep>
  <scstep>
   <time name="dav">    0.11    0.11</time>
   <time name="total">    0.24    0.24</time>
   <energy>
    <i name="e_fr_energy">    -24.29831316 </i>
    <i name="e_wo_entrp">    -24.29831316 </i>
    <i name="e_0_energy">    -24.29831316 </i>
   </energy>
  </scstep>
  <scstep>
   <time name="dav">    0.10    0.10</time>
   <time name="total">    0.23    0.24</time>
   <energy>
    <i name="e_fr_energy">    -24.29831273 </i>
    <i name="e_wo_entrp">    -24.29831273 </i>
    <i name="e_0_energy">    -24.29831273 </i>
   </energy>
  </scstep>
  <scstep>
   <time name="dav">    0.09    0.09</time>
   <time name="total">    0.22    0.23</time>
   <energy>
    <i name="e_fr_energy">    -24.29831272 </i>
    <i name="e_wo_entrp">    -24.29831272 </i>
    <i name="e_0_energy">    -24.29831272 </i>
   </energy>
  </scstep>
  <scstep>
   <time name="dav">    0.10    0.10</time>
   <time name="total">    0.23    0.23</time>
   <energy>
    <i name="e_fr_energy">    -24.29831271 </i>
    <i name="e_wo_entrp">    -24.29831271 </i>
    <i name="e_0_energy">    -24.29831271 </i>
   </energy>
  </scstep>
  <scstep>
   <time name="dav">    0.09    0.09</time>
   <time name="total">    0.23    0.23</time>
   <energy>
    <i name="e_fr_energy">    -24.29831270 </i>
    <i name="e_wo_entrp">    -24.29831270 </i>
    <i name="e_0_energy">    -24.29831270 </i>
   </energy>
  </scstep>
  <scstep>
   <time name="dav">    0.06    0.06</time>
   <time name="total">    0.19    0.19</time>
   <energy>
    <i name="alphaZ">    196.05190078 </i>
    <i name="ewald">  -3164.88246894 </i>
    <i name="hartreedc">  -1165.42847041 </i>
    <i name="XCdc">    129.95362818 </i>
    <i name="pawpsdc">   4471.49314367 </i>
    <i name="pawaedc">  -5148.74207380 </i>
    <i name="eentropy">     -0.00000000 </i>
    <i name="bandstr">   -169.33322610 </i>
    <i name="atom">   4826.58925392 </i>
    <i name="e_fr_energy">    -24.29831270 </i>
    <i name="e_wo_entrp">    -24.29831270 </i>
    <i name="e_0_energy">    -24.29831270 </i>
   </energy>
  </scstep>
  <structure>
   <crystal>
    <varray name="basis" >
     <v>       3.19586829       0.00000000       0.00000000 </v>
     <v>      -1.59793414       2.76770313      -0.00000000 </v>
     <v>       0.00000000       0.00000000       5.20756168 </v>
    </varray>
    <i name="volume">     46.06200091 </i>
    <varray name="rec_basis" >
     <v>       0.31290401       0.18065521      -0.00000000 </v>
     <v>       0.00000000       0.36131043       0.00000000 </v>
     <v>      -0.00000000      -0.00000000       0.19202845 </v>
    </varray>
   </crystal>
   <varray name="positions" >
    <v>       0.33333333       0.66666667      -0.00077683 </v>
    <v>       0.66666667       0.33333333       0.49922317 </v>
    <v>       0.33333333       0.66666667       0.37577683 </v>
    <v>       0.66666667       0.33333333       0.87577683 </v>
   </varray>
  </structure>
  <varray name="forces" >
   <v>       0.00000000      -0.00000000      -0.00260596 </v>
   <v>      -0.00000000       0.00000000      -0.00260596 </v>
   <v>      -0.00000000       0.00000000       0.00260596 </v>
   <v>       0.00000000      -0.00000000       0.00260596 </v>
  </varray>
  <varray name="stress" >
   <v>       0.81294180      -0.00000000       0.00000000 </v>
   <v>      -0.00000000       0.81294180       0.00000000 </v>
   <v>       0.00000000       0.00000000      -0.96094926 </v>
  </varray>
  <energy>
   <i name="e_fr_energy">    -24.29831270 </i>
   <i name="e_wo_entrp">    -24.29831270 </i>
   <i name="e_0_energy">    -24.29831270 </i>
  </energy>
  <time name="totalsc">    2.32    2.35</time>
 </calculation>
 <calculation>
  <scstep>
   <time name="dav">    0.08    0.08</time>
   <time name="total">    0.21    0.22</time>
   <energy>
    <i name="alphaZ">    196.06518539 </i>
    <i name="ewald">  -3164.94929222 </i>
    <i name="hartreedc">  -1165.45892570 </i>
    <i name="XCdc">    129.95729679 </i>
    <i name="pawpsdc">   4471.49348440 </i>
    <i name="pawaedc">  -5148.74237640 </i>
    <i name="eentropy">     -0.00000000 </i>
    <i name="bandstr">   -169.25293997 </i>
    <i name="atom">   4826.58925392 </i>
    <i name="e_fr_energy">    -24.29831379 </i>
    <i name="e_wo_entrp">    -24.29831379 </i>
    <i name="e_0_energy">    -24.29831379 </i>
   </energy>
  </scstep>
  <scstep>
   <time name="dav">    0.09    0.09</time>
   <time name="total">    0.23    0.23</time>
   <energy>
    <i name="e_fr_energy">    -24.29831492 </i>
    <i name="e_wo_entrp">    -24.29831492 </i>
    <i name="e_0_energy">    -24.29831492 </i>
   </energy>
  </scstep>
  <scstep>
   <time name="dav">    0.10    0.10</time>
   <time name="total">    0.24    0.24</time>
   <energy>
    <i name="e_fr_energy">    -24.29831468 </i>
    <i name="e_wo_entrp">    -24.29831468 </i>
    <i name="e_0_energy">    -24.29831468 </i>
   </energy>
  </scstep>
  <scstep>
   <time name="dav">    0.10    0.10</time>
   <time name="total">    0.24    0.24</time>
   <energy>
    <i name="e_fr_energy">    -24.29831467 </i>
    <i name="e_wo_entrp">    -24.29831467 </i>
    <i name="e_0_energy">    -24.29831467 </i>
   </energy>
  </scstep>
  <scstep>
   <time name="dav">    0.09    0.09</time>
   <time name="total">    0.22    0.22</time>
   <energy>
    <i name="e_fr_energy">    -24.29831467 </i>
    <i name="e_wo_entrp">    -24.29831467 </i>
    <i name="e_0_energy">    -24.29831467 </i>
   </energy>
  </scstep>
  <scstep>
   <time name="dav">    0.07    0.07</time>
   <time name="total">    0.20    0.20</time>
   <energy>
    <i name="e_fr_energy">    -24.29831467 </i>
    <i name="e_wo_entrp">    -24.29831467 </i>
    <i name="e_0_energy">    -24.29831467 </i>
   </energy>
  </scstep>
  <scstep>
   <time name="dav">    0.06    0.06</time>
   <time name="total">    0.19    0.19</time>
   <energy>
    <i name="alphaZ">    196.06518539 </i>
    <i name="ewald">  -3164.94929222 </i>
    <i name="hartreedc">  -1165.39707432 </i>
    <i name="XCdc">    129.95453442 </i>
    <i name="pawpsdc">   4471.64352308 </i>
    <i name="pawaedc">  -5148.89407633 </i>
    <i name="eentropy">     -0.00000000 </i>
    <i name="bandstr">   -169.31036861 </i>
    <i name="atom">   4826.58925392 </i>
    <i name="e_fr_energy">    -24.29831467 </i>
    <i name="e_wo_entrp">    -24.29831467 </i>
    <i name="e_0_energy">    -24.29831467 </i>
   </energy>
  </scstep>
  <structure>
   <crystal>
    <varray name="basis" >
     <v>       3.19586109       0.00000000       0.00000000 </v>
     <v>      -1.59793055       2.76769689      -0.00000000 </v>
     <v>       0.00000000       0.00000000       5.20723230 </v>
    </varray>
    <i name="volume">     46.05887993 </i>
    <varray name="rec_basis" >
     <v>       0.31290471       0.18065562      -0.00000000 </v>
     <v>       0.00000000       0.36131124       0.00000000 </v>
     <v>      -0.00000000      -0.00000000       0.19204060 </v>
    </varray>
   </crystal>
   <varray name="positions" >
    <v>       0.33333333       0.66666667      -0.00081911 </v>
    <v>       0.66666667       0.33333333       0.49918089 </v>
    <v>       0.33333333       0.66666667       0.37581911 </v>
    <v>       0.66666667       0.33333333       0.87581911 </v>
   </varray>
  </structure>
  <varray name="forces" >
   <v>      -0.00000000       0.00000000       0.00181562 </v>
   <v>       0.00000000       0.00000000       0.00181562 </v>
   <v>      -0.00000000      -0.00000000      -0.00181562 </v>
   <v>       0.00000000      -0.00000000      -0.00181562 </v>
  </varray>
  <varray name="stress" >
   <v>       1.03303364       0.00000000       0.00000000 </v>
   <v>       0.00000000       1.03303364       0.00000000 </v>
   <v>       0.00000000       0.00000000      -0.94750437 </v>
  </varray>
  <energy>
   <i name="e_fr_energy">    -24.29831467 </i>
   <i name="e_wo_entrp">    -24.29831467 </i>
   <i name="e_0_energy">    -24.29831467 </i>
  </energy>
  <time name="totalsc">    2.06    2.09</time>
 </calculation>
 <calculation>
  <scstep>
   <time name="dav">    0.09    0.09</time>
   <time name="total">    0.23    0.23</time>
   <energy>
    <i name="alphaZ">    196.01275011 </i>
    <i name="ewald">  -3164.64982261 </i>
    <i name="hartreedc">  -1165.30761626 </i>
    <i name="XCdc">    129.94015859 </i>
    <i name="pawpsdc">   4471.64401815 </i>
    <i name="pawaedc">  -5148.89457351 </i>
    <i name="eentropy">     -0.00000000 </i>
    <i name="bandstr">   -169.63259864 </i>
    <i name="atom">   4826.58925392 </i>
    <i name="e_fr_energy">    -24.29843024 </i>
    <i name="e_wo_entrp">    -24.29843024 </i>
    <i name="e_0_energy">    -24.29843024 </i>
   </energy>
  </scstep>
  <scstep>
   <time name="dav">    0.10    0.10</time>
   <time name="total">    0.24    0.24</time>
   <energy>
    <i name="e_fr_energy">    -24.29836267 </i>
    <i name="e_wo_entrp">    -24.29836267 </i>
    <i name="e_0_energy">    -24.29836267 </i>
   </energy>
  </scstep>
  <scstep>
   <time name="dav">    0.12    0.12</time>
   <time name="total">    0.25    0.26</time>
   <energy>
    <i name="e_fr_energy">    -24.29832499 </i>
    <i name="e_wo_entrp">    -24.29832499 </i>
    <i name="e_0_energy">    -24.29832499 </i>
   </energy>
  </scstep>
  <scstep>
   <time name="dav">    0.08    0.08</time>
   <time name="total">    0.22    0.22</time>
   <energy>
    <i name="e_fr_energy">    -24.29832512 </i>
    <i name="e_wo_entrp">    -24.29832512 </i>
    <i name="e_0_energy">    -24.29832512 </i>
   </energy>
  </scstep>
  <scstep>
   <time name="dav">    0.09    0.09</time>
   <time name="total">    0.23    0.23</time>
   <energy>
    <i name="e_fr_energy">    -24.29832502 </i>
    <i name="e_wo_entrp">    -24.29832502 </i>
    <i name="e_0_energy">    -24.29832502 </i>
   </energy>
  </scstep>
  <scstep>
   <time name="dav">    0.09    0.09</time>
   <time name="total">    0.23    0.23</time>
   <energy>
    <i name="e_fr_energy">    -24.29832500 </i>
    <i name="e_wo_entrp">    -24.29832500 </i>
    <i name="e_0_energy">    -24.29832500 </i>
   </energy>
  </scstep>
  <scstep>
   <time name="dav">    0.09    0.10</time>
   <time name="total">    0.23    0.23</time>
   <energy>
    <i name="e_fr_energy">    -24.29832500 </i>
    <i name="e_wo_entrp">    -24.29832500 </i>
    <i name="e_0_energy">    -24.29832500 </i>
   </energy>
  </scstep>
  <scstep>
   <time name="dav">    0.08    0.08</time>
   <time name="total">    0.21    0.21</time>
   <energy>
    <i name="e_fr_energy">    -24.29832500 </i>
    <i name="e_wo_entrp">    -24.29832500 </i>
    <i name="e_0_energy">    -24.29832500 </i>
   </energy>
  </scstep>
  <scstep>
   <time name="dav">    0.06    0.06</time>
   <time name="total">    0.19    0.20</time>
   <energy>
    <i name="e_fr_energy">    -24.29832500 </i>
    <i name="e_wo_entrp">    -24.29832500 </i>
    <i name="e_0_energy">    -24.29832500 </i>
   </energy>
  </scstep>
  <scstep>
   <time name="dav">    0.06    0.06</time>
   <time name="total">    0.19    0.19</time>
   <energy>
    <i name="alphaZ">    196.01275011 </i>
    <i name="ewald">  -3164.64982261 </i>
    <i name="hartreedc">  -1165.56074756 </i>
    <i name="XCdc">    129.95136136 </i>
    <i name="pawpsdc">   4471.01356304 </i>
    <i name="pawaedc">  -5148.25851361 </i>
    <i name="eentropy">     -0.00000000 </i>
    <i name="bandstr">   -169.39616966 </i>
    <i name="atom">   4826.58925392 </i>
    <i name="e_fr_energy">    -24.29832500 </i>
    <i name="e_wo_entrp">    -24.29832500 </i>
    <i name="e_0_energy">    -24.29832500 </i>
   </energy>
  </scstep>
  <structure>
   <crystal>
    <varray name="basis" >
     <v>       3.19692183       0.00000000       0.00000000 </v>
     <v>      -1.59846092       2.76861552      -0.00000000 </v>
     <v>       0.00000000       0.00000000       5.20516940 </v>
    </varray>
    <i name="volume">     46.07120112 </i>
    <varray name="rec_basis" >
     <v>       0.31280089       0.18059568      -0.00000000 </v>
     <v>       0.00000000       0.36119136      -0.00000000 </v>
     <v>      -0.00000000      -0.00000000       0.19211671 </v>
    </varray>
   </crystal>
   <varray name="positions" >
    <v>       0.33333333       0.66666667      -0.00086277 </v>
    <v>       0.66666667       0.33333333       0.49913723 </v>
    <v>       0.33333333       0.66666667       0.37586277 </v>
    <v>       0.66666667       0.33333333       0.87586277 </v>
   </varray>
  </structure>
  <varray name="forces" >
   <v>      -0.00000000       0.00000000      -0.00024645 </v>
   <v>       0.00000000      -0.00000000      -0.00024645 </v>
   <v>      -0.00000000       0.00000000       0.00024645 </v>
   <v>       0.00000000      -0.00000000       0.00024645 </v>
  </varray>
  <varray name="stress" >
   <v>      -0.32504155       0.00000000       0.00000000 </v>
   <v>       0.00000000      -0.32504155       0.00000000 </v>
   <v>       0.00000000       0.00000000       0.14620549 </v>
  </varray>
  <energy>
   <i name="e_fr_energy">    -24.29832500 </i>
   <i name="e_wo_entrp">    -24.29832500 </i>
   <i name="e_0_energy">    -24.29832500 </i>
  </energy>
  <time name="totalsc">    2.72    2.75</time>
  <eigenvalues>
   <array>
    <dimension dim="1">band</dimension>
    <dimension dim="2">kpoint</dimension>
    <dimension dim="3">spin</dimension>
    <field>eigene</field>
    <field>occ</field>
    <set>
     <set comment="spin 1">
      <set comment="kpoint 1">
       <r>  -10.6878    1.0000 </r>
       <r>   -9.7911    1.0000 </r>
       <r>   -8.1986    1.0000 </r>
       <r>   -8.1836    1.0000 </r>
       <r>   -8.1836    1.0000 </r>
       <r>   -8.1237    1.0000 </r>
       <r>   -8.1237    1.0000 </r>
       <r>   -7.9368    1.0000 </r>
       <r>   -7.9368    1.0000 </r>
       <r>   -7.8412    1.0000 </r>
       <r>   -7.8412    1.0000 </r>
       <r>   -6.6137    1.0000 </r>
       <r>   -1.7683    1.0000 </r>
       <r>    4.2054    1.0000 </r>
       <r>    4.2059    1.0000 </r>
       <r>    5.2001    1.0000 </r>
       <r>    5.2322    1.0000 </r>
       <r>    5.2327    1.0000 </r>
       <r>    7.0780    0.0000 </r>
       <r>    9.4210    0.0000 </r>
       <r>   14.3916    0.0000 </r>
       <r>   15.0727    0.0000 </r>
       <r>   15.0727    0.0000 </r>
       <r>   15.8995    0.0000 </r>
      </set>
      <set comment="kpoint 2">
       <r>  -10.6203    1.0000 </r>
       <r>   -9.7736    1.0000 </r>
       <r>   -8.1925    1.0000 </r>
       <r>   -8.1735    1.0000 </r>
       <r>   -8.1606    1.0000 </r>
       <r>   -8.1161    1.0000 </r>
       <r>   -8.1103    1.0000 </r>
       <r>   -7.9422    1.0000 </r>
       <r>   -7.9373    1.0000 </r>
       <r>   -7.8527    1.0000 </r>
       <r>   -7.8396    1.0000 </r>
       <r>   -6.5659    1.0000 </r>
       <r>   -1.6699    1.0000 </r>
       <r>    3.6941    1.0000 </r>
       <r>    4.0649    1.0000 </r>
       <r>    4.6001    1.0000 </r>
       <r>    5.1367    1.0000 </r>
       <r>    5.1766    1.0000 </r>
       <r>    7.6654    0.0000 </r>
       <r>    9.8601    0.0000 </r>
       <r>   14.2089    0.0000 </r>
       <r>   14.5866    0.0000 </r>
       <r>   15.2537    0.0000 </r>
       <r>   15.9942    0.0000 </r>
      </set>
      <set comment="kpoint 3">
       <r>  -10.4371    1.0000 </r>
       <r>   -9.7312    1.0000 </r>
       <r>   -8.1689    1.0000 </r>
       <r>   -8.1495    1.0000 </r>
       <r>   -8.1047    1.0000 </r>
       <r>   -8.0744    1.0000 </r>
       <r>   -8.0737    1.0000 </r>
       <r>   -7.9576    1.0000 </r>
       <r>   -7.9353    1.0000 </r>
       <r>   -7.8768    1.0000 </r>
       <r>   -7.8358    1.0000 </r>
       <r>   -6.4325    1.0000 </r>
       <r>   -1.3873    1.0000 </r>
       <r>    2.5337    1.0000 </r>
       <r>    3.5034    1.0000 </r>
       <r>    3.7036    1.0000 </r>
       <r>    4.9203    1.0000 </r>
       <r>    4.9985    1.0000 </r>
       <r>    8.6136    0.0000 </r>
       <r>   10.7026    0.0000 </r>
       <r>   13.3573    0.0000 </r>
       <r>   14.1267    0.0000 </r>
       <r>   15.5970    0.0000 </r>
       <r>   15.6562    0.0000 </r>
      </set>
      <set comment="kpoint 4">
       <r>  -10.1961    1.0000 </r>
       <r>   -9.6845    1.0000 </r>
       <r>   -8.1444    1.0000 </r>
       <r>   -8.1258    1.0000 </r>
       <r>   -8.0623    1.0000 </r>
       <r>   -8.0244    1.0000 </r>
       <r>   -7.9750    1.0000 </r>
       <r>   -7.9523    1.0000 </r>
       <r>   -7.9213    1.0000 </r>
       <r>   -7.8462    1.0000 </r>
       <r>   -7.8307    1.0000 </r>
       <r>   -6.2440    1.0000 </r>
       <r>   -0.9723    1.0000 </r>
       <r>    1.2682    1.0000 </r>
       <r>    2.3611    1.0000 </r>
       <r>    3.2667    1.0000 </r>
       <r>    4.5345    1.0000 </r>
       <r>    4.7435    1.0000 </r>
       <r>    9.4618    0.0000 </r>
       <r>   11.1094    0.0000 </r>
       <r>   12.5818    0.0000 </r>
       <r>   13.7273    0.0000 </r>
       <r>   15.3344    0.0000 </r>
       <r>   15.8983    0.0000 </r>
      </set>
      <set comment="kpoint 5">
       <r>   -9.9791    1.0000 </r>
       <r>   -9.6504    1.0000 </r>
       <r>   -8.1319    1.0000 </r>
       <r>   -8.1137    1.0000 </r>
       <r>   -8.0333    1.0000 </r>
       <r>   -7.9765    1.0000 </r>
       <r>   -7.9742    1.0000 </r>
       <r>   -7.9433    1.0000 </r>
       <r>   -7.8922    1.0000 </r>
       <r>   -7.8245    1.0000 </r>
       <r>   -7.5263    1.0000 </r>
       <r>   -6.0742    1.0000 </r>
       <r>   -0.6846    1.0000 </r>
       <r>    0.3936    1.0000 </r>
       <r>    1.3399    1.0000 </r>
       <r>    2.8756    1.0000 </r>
       <r>    3.9907    1.0000 </r>
       <r>    4.4924    1.0000 </r>
       <r>   10.0524    0.0000 </r>
       <r>   10.9160    0.0000 </r>
       <r>   11.9375    0.0000 </r>
       <r>   13.6164    0.0000 </r>
       <r>   15.4749    0.0000 </r>
       <r>   15.8181    0.0000 </r>
      </set>
      <set comment="kpoint 6">
       <r>   -9.8443    1.0000 </r>
       <r>   -9.6332    1.0000 </r>
       <r>   -8.1325    1.0000 </r>
       <r>   -8.1112    1.0000 </r>
       <r>   -8.0214    1.0000 </r>
       <r>   -7.9731    1.0000 </r>
       <r>   -7.9442    1.0000 </r>
       <r>   -7.9331    1.0000 </r>
       <r>   -7.8620    1.0000 </r>
       <r>   -7.8182    1.0000 </r>
       <r>   -7.0495    1.0000 </r>
       <r>   -6.0602    1.0000 </r>
       <r>   -0.9985    1.0000 </r>
       <r>    0.2035    1.0000 </r>
       <r>    0.8959    1.0000 </r>
       <r>    2.6103    1.0000 </r>
       <r>    3.3799    1.0000 </r>
       <r>    4.3105    1.0000 </r>
       <r>   10.2608    0.0000 </r>
       <r>   10.7643    0.0000 </r>
       <r>   11.4385    0.0000 </r>
       <r>   13.6945    0.0000 </r>
       <r>   15.5384    0.0000 </r>
       <r>   15.6592    0.0000 </r>
      </set>
      <set comment="kpoint 7">
       <r>   -9.8008    1.0000 </r>
       <r>   -9.6289    1.0000 </r>
       <r>   -8.1347    1.0000 </r>
       <r>   -8.1113    1.0000 </r>
       <r>   -8.0170    1.0000 </r>
       <r>   -7.9759    1.0000 </r>
       <r>   -7.9332    1.0000 </r>
       <r>   -7.9243    1.0000 </r>
       <r>   -7.8493    1.0000 </r>
       <r>   -7.8153    1.0000 </r>
       <r>   -6.7175    1.0000 </r>
       <r>   -6.1875    1.0000 </r>
       <r>   -1.1825    1.0000 </r>
       <r>   -0.0311    1.0000 </r>
       <r>    1.0686    1.0000 </r>
       <r>    2.5152    1.0000 </r>
       <r>    3.0549    1.0000 </r>
       <r>    4.2441    1.0000 </r>
       <r>   10.2681    0.0000 </r>
       <r>   10.7366    0.0000 </r>
       <r>   11.2687    0.0000 </r>
       <r>   13.7620    0.0000 </r>
       <r>   15.5499    0.0000 </r>
       <r>   15.5916    0.0000 </r>
      </set>
      <set comment="kpoint 8">
       <r>  -10.4949    1.0000 </r>
       <r>   -9.7439    1.0000 </r>
       <r>   -8.1755    1.0000 </r>
       <r>   -8.1574    1.0000 </r>
       <r>   -8.1193    1.0000 </r>
       <r>   -8.1029    1.0000 </r>
       <r>   -8.0771    1.0000 </r>
       <r>   -7.9515    1.0000 </r>
       <r>   -7.9379    1.0000 </r>
       <r>   -7.8711    1.0000 </r>
       <r>   -7.8365    1.0000 </r>
       <r>   -6.4752    1.0000 </r>
       <r>   -1.4792    1.0000 </r>
       <r>    2.9575    1.0000 </r>
       <r>    3.5077    1.0000 </r>
       <r>    4.0579    1.0000 </r>
       <r>    4.9974    1.0000 </r>
       <r>    4.9983    1.0000 </r>
       <r>    8.3740    0.0000 </r>
       <r>   10.5215    0.0000 </r>
       <r>   13.8619    0.0000 </r>
       <r>   13.8810    0.0000 </r>
       <r>   15.6612    0.0000 </r>
       <r>   16.0253    0.0000 </r>
      </set>
      <set comment="kpoint 9">
       <r>  -10.2822    1.0000 </r>
       <r>   -9.7000    1.0000 </r>
       <r>   -8.1473    1.0000 </r>
       <r>   -8.1376    1.0000 </r>
       <r>   -8.0761    1.0000 </r>
       <r>   -8.0587    1.0000 </r>
       <r>   -7.9728    1.0000 </r>
       <r>   -7.9667    1.0000 </r>
       <r>   -7.9302    1.0000 </r>
       <r>   -7.8901    1.0000 </r>
       <r>   -7.8270    1.0000 </r>
       <r>   -6.3120    1.0000 </r>
       <r>   -1.1260    1.0000 </r>
       <r>    1.8560    1.0000 </r>
       <r>    2.5886    1.0000 </r>
       <r>    3.4554    1.0000 </r>
       <r>    4.7025    1.0000 </r>
       <r>    4.7116    1.0000 </r>
       <r>    9.2552    0.0000 </r>
       <r>   11.2915    0.0000 </r>
       <r>   12.9509    0.0000 </r>
       <r>   13.5209    0.0000 </r>
       <r>   15.3638    0.0000 </r>
       <r>   15.9736    0.0000 </r>
      </set>
      <set comment="kpoint 10">
       <r>  -10.0541    1.0000 </r>
       <r>   -9.6615    1.0000 </r>
       <r>   -8.1294    1.0000 </r>
       <r>   -8.1231    1.0000 </r>
       <r>   -8.0388    1.0000 </r>
       <r>   -8.0068    1.0000 </r>
       <r>   -7.9777    1.0000 </r>
       <r>   -7.9315    1.0000 </r>
       <r>   -7.9056    1.0000 </r>
       <r>   -7.8403    1.0000 </r>
       <r>   -7.6693    1.0000 </r>
       <r>   -6.1233    1.0000 </r>
       <r>   -0.7246    1.0000 </r>
       <r>    0.7848    1.0000 </r>
       <r>    1.6794    1.0000 </r>
       <r>    2.8519    1.0000 </r>
       <r>    4.2507    1.0000 </r>
       <r>    4.3930    1.0000 </r>
       <r>   10.0369    0.0000 </r>
       <r>   11.4216    0.0000 </r>
       <r>   12.2006    0.0000 </r>
       <r>   13.4668    0.0000 </r>
       <r>   15.0901    0.0000 </r>
       <r>   16.0116    0.0000 </r>
      </set>
      <set comment="kpoint 11">
       <r>   -9.8826    1.0000 </r>
       <r>   -9.6385    1.0000 </r>
       <r>   -8.1327    1.0000 </r>
       <r>   -8.1109    1.0000 </r>
       <r>   -8.0147    1.0000 </r>
       <r>   -7.9763    1.0000 </r>
       <r>   -7.9607    1.0000 </r>
       <r>   -7.9385    1.0000 </r>
       <r>   -7.8769    1.0000 </r>
       <r>   -7.8292    1.0000 </r>
       <r>   -7.2491    1.0000 </r>
       <r>   -6.0156    1.0000 </r>
       <r>   -0.7499    1.0000 </r>
       <r>    0.3386    1.0000 </r>
       <r>    0.9895    1.0000 </r>
       <r>    2.4176    1.0000 </r>
       <r>    3.6617    1.0000 </r>
       <r>    4.1355    1.0000 </r>
       <r>   10.5463    0.0000 </r>
       <r>   11.1701    0.0000 </r>
       <r>   11.5721    0.0000 </r>
       <r>   13.5961    0.0000 </r>
       <r>   15.1501    0.0000 </r>
       <r>   15.8068    0.0000 </r>
      </set>
      <set comment="kpoint 12">
       <r>   -9.7974    1.0000 </r>
       <r>   -9.6301    1.0000 </r>
       <r>   -8.1386    1.0000 </r>
       <r>   -8.1074    1.0000 </r>
       <r>   -8.0062    1.0000 </r>
       <r>   -7.9749    1.0000 </r>
       <r>   -7.9381    1.0000 </r>
       <r>   -7.9295    1.0000 </r>
       <r>   -7.8585    1.0000 </r>
       <r>   -7.8233    1.0000 </r>
       <r>   -6.7832    1.0000 </r>
       <r>   -6.1070    1.0000 </r>
       <r>   -1.0674    1.0000 </r>
       <r>    0.0629    1.0000 </r>
       <r>    1.0517    1.0000 </r>
       <r>    2.2317    1.0000 </r>
       <r>    3.1202    1.0000 </r>
       <r>    3.9927    1.0000 </r>
       <r>   10.7127    0.0000 </r>
       <r>   11.0357    0.0000 </r>
       <r>   11.2285    0.0000 </r>
       <r>   13.7033    0.0000 </r>
       <r>   15.2767    0.0000 </r>
       <r>   15.5609    0.0000 </r>
      </set>
      <set comment="kpoint 13">
       <r>  -10.0825    1.0000 </r>
       <r>   -9.6659    1.0000 </r>
       <r>   -8.1371    1.0000 </r>
       <r>   -8.1143    1.0000 </r>
       <r>   -8.0488    1.0000 </r>
       <r>   -8.0242    1.0000 </r>
       <r>   -7.9762    1.0000 </r>
       <r>   -7.9187    1.0000 </r>
       <r>   -7.9059    1.0000 </r>
       <r>   -7.8627    1.0000 </r>
       <r>   -7.7035    1.0000 </r>
       <r>   -6.1417    1.0000 </r>
       <r>   -0.7624    1.0000 </r>
       <r>    1.2198    1.0000 </r>
       <r>    1.5744    1.0000 </r>
       <r>    2.8452    1.0000 </r>
       <r>    4.2215    1.0000 </r>
       <r>    4.3525    1.0000 </r>
       <r>   10.1017    0.0000 </r>
       <r>   12.0484    0.0000 </r>
       <r>   12.5032    0.0000 </r>
       <r>   12.8579    0.0000 </r>
       <r>   15.2156    0.0000 </r>
       <r>   15.4059    0.0000 </r>
      </set>
      <set comment="kpoint 14">
       <r>   -9.9045    1.0000 </r>
       <r>   -9.6423    1.0000 </r>
       <r>   -8.1464    1.0000 </r>
       <r>   -8.0875    1.0000 </r>
       <r>   -8.0147    1.0000 </r>
[...]
        <r>  0.0001  0.0041  0.0000 </r>
        <r>  0.0001  0.0041  0.0000 </r>
       </set>
       <set comment="band 7">
        <r>  0.0002  0.0003  0.4920 </r>
        <r>  0.0002  0.0003  0.4921 </r>
        <r>  0.0001  0.0018  0.0000 </r>
        <r>  0.0001  0.0018  0.0000 </r>
       </set>
       <set comment="band 8">
        <r>  0.0002  0.0003  0.4928 </r>
        <r>  0.0002  0.0003  0.4928 </r>
        <r>  0.0001  0.0018  0.0000 </r>
        <r>  0.0001  0.0018  0.0000 </r>
       </set>
       <set comment="band 9">
        <r>  0.0000  0.0001  0.4958 </r>
        <r>  0.0000  0.0001  0.4960 </r>
        <r>  0.0001  0.0002  0.0000 </r>
        <r>  0.0001  0.0002  0.0000 </r>
       </set>
       <set comment="band 10">
        <r>  0.0000  0.0001  0.4959 </r>
        <r>  0.0000  0.0001  0.4957 </r>
        <r>  0.0001  0.0002  0.0000 </r>
        <r>  0.0001  0.0002  0.0000 </r>
       </set>
       <set comment="band 11">
        <r>  0.0129  0.0215  0.2746 </r>
        <r>  0.0129  0.0215  0.2746 </r>
        <r>  0.1300  0.0010  0.0000 </r>
        <r>  0.1300  0.0010  0.0000 </r>
       </set>
       <set comment="band 12">
        <r>  0.0074  0.0251  0.2642 </r>
        <r>  0.0074  0.0251  0.2642 </r>
        <r>  0.1399  0.0006  0.0000 </r>
        <r>  0.1399  0.0006  0.0000 </r>
       </set>
       <set comment="band 13">
        <r>  0.1667  0.0264  0.0119 </r>
        <r>  0.1667  0.0264  0.0119 </r>
        <r>  0.0007  0.1317  0.0000 </r>
        <r>  0.0007  0.1317  0.0000 </r>
       </set>
       <set comment="band 14">
        <r>  0.1640  0.0267  0.0138 </r>
        <r>  0.1640  0.0267  0.0138 </r>
        <r>  0.0045  0.1330  0.0000 </r>
        <r>  0.0045  0.1330  0.0000 </r>
       </set>
       <set comment="band 15">
        <r>  0.0161  0.0966  0.0194 </r>
        <r>  0.0161  0.0966  0.0194 </r>
        <r>  0.0035  0.1873  0.0000 </r>
        <r>  0.0035  0.1873  0.0000 </r>
       </set>
       <set comment="band 16">
        <r>  0.0108  0.0931  0.0246 </r>
        <r>  0.0108  0.0931  0.0246 </r>
        <r>  0.0033  0.1988  0.0000 </r>
        <r>  0.0033  0.1988  0.0000 </r>
       </set>
       <set comment="band 17">
        <r>  0.0072  0.0858  0.0223 </r>
        <r>  0.0072  0.0858  0.0223 </r>
        <r>  0.0020  0.2432  0.0000 </r>
        <r>  0.0020  0.2432  0.0000 </r>
       </set>
       <set comment="band 18">
        <r>  0.0005  0.0816  0.0253 </r>
        <r>  0.0005  0.0816  0.0253 </r>
        <r>  0.0001  0.2583  0.0000 </r>
        <r>  0.0001  0.2583  0.0000 </r>
       </set>
       <set comment="band 19">
        <r>  0.0727  0.0788  0.0416 </r>
        <r>  0.0727  0.0787  0.0416 </r>
        <r>  0.0477  0.0369  0.0000 </r>
        <r>  0.0477  0.0369  0.0000 </r>
       </set>
       <set comment="band 20">
        <r>  0.0656  0.0831  0.0396 </r>
        <r>  0.0656  0.0831  0.0396 </r>
        <r>  0.0442  0.0543  0.0000 </r>
        <r>  0.0442  0.0543  0.0000 </r>
       </set>
       <set comment="band 21">
        <r>  0.1310  0.0523  0.0461 </r>
        <r>  0.1310  0.0523  0.0461 </r>
        <r>  0.0012  0.1038  0.0000 </r>
        <r>  0.0012  0.1038  0.0000 </r>
       </set>
       <set comment="band 22">
        <r>  0.1234  0.0505  0.0406 </r>
        <r>  0.1234  0.0505  0.0406 </r>
        <r>  0.0061  0.1285  0.0000 </r>
        <r>  0.0061  0.1285  0.0000 </r>
       </set>
       <set comment="band 23">
        <r>  0.0201  0.0918  0.0379 </r>
        <r>  0.0201  0.0918  0.0379 </r>
        <r>  0.0069  0.1106  0.0000 </r>
        <r>  0.0069  0.1106  0.0000 </r>
       </set>
       <set comment="band 24">
        <r>  0.0227  0.0598  0.0317 </r>
        <r>  0.0227  0.0599  0.0317 </r>
        <r>  0.0074  0.1733  0.0000 </r>
        <r>  0.0074  0.1733  0.0000 </r>
       </set>
      </set>
      <set comment="kpoint 74">
       <set comment="band 1">
        <r>  0.0121  0.0175  0.2213 </r>
        <r>  0.0121  0.0175  0.2213 </r>
        <r>  0.1762  0.0000  0.0000 </r>
        <r>  0.1762  0.0000  0.0000 </r>
       </set>
       <set comment="band 2">
        <r>  0.0069  0.0177  0.2379 </r>
        <r>  0.0069  0.0177  0.2379 </r>
        <r>  0.1699  0.0000  0.0000 </r>
        <r>  0.1699  0.0000  0.0000 </r>
       </set>
       <set comment="band 3">
        <r>  0.0004  0.0004  0.4848 </r>
        <r>  0.0004  0.0004  0.4848 </r>
        <r>  0.0001  0.0050  0.0000 </r>
        <r>  0.0001  0.0050  0.0000 </r>
       </set>
       <set comment="band 4">
        <r>  0.0003  0.0005  0.4843 </r>
        <r>  0.0003  0.0005  0.4843 </r>
        <r>  0.0002  0.0053  0.0000 </r>
        <r>  0.0002  0.0053  0.0000 </r>
       </set>
       <set comment="band 5">
        <r>  0.0000  0.0003  0.4887 </r>
        <r>  0.0000  0.0003  0.4887 </r>
        <r>  0.0000  0.0040  0.0000 </r>
        <r>  0.0000  0.0040  0.0000 </r>
       </set>
       <set comment="band 6">
        <r>  0.0001  0.0002  0.4897 </r>
        <r>  0.0001  0.0002  0.4897 </r>
        <r>  0.0000  0.0038  0.0000 </r>
        <r>  0.0000  0.0038  0.0000 </r>
       </set>
       <set comment="band 7">
        <r>  0.0007  0.0002  0.4901 </r>
        <r>  0.0007  0.0002  0.4901 </r>
        <r>  0.0001  0.0016  0.0000 </r>
        <r>  0.0001  0.0016  0.0000 </r>
       </set>
       <set comment="band 8">
        <r>  0.0006  0.0003  0.4900 </r>
        <r>  0.0006  0.0003  0.4900 </r>
        <r>  0.0002  0.0020  0.0000 </r>
        <r>  0.0002  0.0020  0.0000 </r>
       </set>
       <set comment="band 9">
        <r>  0.0000  0.0001  0.4956 </r>
        <r>  0.0000  0.0001  0.4956 </r>
        <r>  0.0001  0.0004  0.0000 </r>
        <r>  0.0001  0.0004  0.0000 </r>
       </set>
       <set comment="band 10">
        <r>  0.0000  0.0001  0.4962 </r>
        <r>  0.0000  0.0001  0.4962 </r>
        <r>  0.0000  0.0005  0.0000 </r>
        <r>  0.0000  0.0005  0.0000 </r>
       </set>
       <set comment="band 11">
        <r>  0.0208  0.0182  0.2824 </r>
        <r>  0.0208  0.0182  0.2824 </r>
        <r>  0.1130  0.0037  0.0000 </r>
        <r>  0.1130  0.0037  0.0000 </r>
       </set>
       <set comment="band 12">
        <r>  0.0141  0.0219  0.2692 </r>
        <r>  0.0141  0.0219  0.2692 </r>
        <r>  0.1298  0.0024  0.0000 </r>
        <r>  0.1298  0.0024  0.0000 </r>
       </set>
       <set comment="band 13">
        <r>  0.1686  0.0208  0.0180 </r>
        <r>  0.1686  0.0208  0.0180 </r>
        <r>  0.0112  0.1338  0.0000 </r>
        <r>  0.0112  0.1338  0.0000 </r>
       </set>
       <set comment="band 14">
        <r>  0.1509  0.0253  0.0227 </r>
        <r>  0.1509  0.0253  0.0227 </r>
        <r>  0.0203  0.1334  0.0000 </r>
        <r>  0.0203  0.1334  0.0000 </r>
       </set>
       <set comment="band 15">
        <r>  0.0130  0.1008  0.0185 </r>
        <r>  0.0130  0.1008  0.0185 </r>
        <r>  0.0005  0.1823  0.0000 </r>
        <r>  0.0005  0.1823  0.0000 </r>
       </set>
       <set comment="band 16">
        <r>  0.0060  0.0979  0.0242 </r>
        <r>  0.0060  0.0979  0.0242 </r>
        <r>  0.0008  0.1929  0.0000 </r>
        <r>  0.0008  0.1929  0.0000 </r>
       </set>
       <set comment="band 17">
        <r>  0.0109  0.0858  0.0223 </r>
        <r>  0.0109  0.0858  0.0223 </r>
        <r>  0.0025  0.2347  0.0000 </r>
        <r>  0.0025  0.2347  0.0000 </r>
       </set>
       <set comment="band 18">
        <r>  0.0014  0.0802  0.0263 </r>
        <r>  0.0014  0.0802  0.0263 </r>
        <r>  0.0003  0.2583  0.0000 </r>
        <r>  0.0003  0.2583  0.0000 </r>
       </set>
       <set comment="band 19">
        <r>  0.0803  0.0828  0.0334 </r>
        <r>  0.0803  0.0828  0.0334 </r>
        <r>  0.0518  0.0519  0.0000 </r>
        <r>  0.0518  0.0519  0.0000 </r>
       </set>
       <set comment="band 20">
        <r>  0.0577  0.0673  0.0458 </r>
        <r>  0.0577  0.0673  0.0458 </r>
        <r>  0.0321  0.0791  0.0000 </r>
        <r>  0.0321  0.0791  0.0000 </r>
       </set>
       <set comment="band 21">
        <r>  0.0779  0.0474  0.0441 </r>
        <r>  0.0779  0.0474  0.0441 </r>
        <r>  0.0073  0.1319  0.0000 </r>
        <r>  0.0073  0.1319  0.0000 </r>
       </set>
       <set comment="band 22">
        <r>  0.1104  0.0660  0.0331 </r>
        <r>  0.1104  0.0660  0.0331 </r>
        <r>  0.0158  0.1151  0.0000 </r>
        <r>  0.0158  0.1151  0.0000 </r>
       </set>
       <set comment="band 23">
        <r>  0.0454  0.0835  0.0329 </r>
        <r>  0.0454  0.0835  0.0329 </r>
        <r>  0.0053  0.1339  0.0000 </r>
        <r>  0.0053  0.1339  0.0000 </r>
       </set>
       <set comment="band 24">
        <r>  0.0596  0.0723  0.0321 </r>
        <r>  0.0596  0.0723  0.0321 </r>
        <r>  0.0017  0.1541  0.0000 </r>
        <r>  0.0017  0.1541  0.0000 </r>
       </set>
      </set>
      <set comment="kpoint 75">
       <set comment="band 1">
        <r>  0.0066  0.0176  0.2402 </r>
        <r>  0.0070  0.0177  0.2375 </r>
        <r>  0.1701  0.0000  0.0000 </r>
        <r>  0.1692  0.0000  0.0000 </r>
       </set>
       <set comment="band 2">
        <r>  0.0045  0.0178  0.2454 </r>
        <r>  0.0041  0.0177  0.2481 </r>
        <r>  0.1662  0.0000  0.0000 </r>
        <r>  0.1672  0.0000  0.0000 </r>
       </set>
       <set comment="band 3">
        <r>  0.0004  0.0005  0.5062 </r>
        <r>  0.0002  0.0004  0.4631 </r>
        <r>  0.0000  0.0045  0.0000 </r>
        <r>  0.0002  0.0057  0.0000 </r>
       </set>
       <set comment="band 4">
        <r>  0.0002  0.0002  0.4684 </r>
        <r>  0.0006  0.0005  0.5027 </r>
        <r>  0.0002  0.0060  0.0000 </r>
        <r>  0.0000  0.0033  0.0000 </r>
       </set>
       <set comment="band 5">
        <r>  0.0003  0.0004  0.4756 </r>
        <r>  0.0001  0.0002  0.4991 </r>
        <r>  0.0000  0.0034  0.0000 </r>
        <r>  0.0001  0.0050  0.0000 </r>
       </set>
       <set comment="band 6">
        <r>  0.0000  0.0003  0.4930 </r>
        <r>  0.0000  0.0003  0.4867 </r>
        <r>  0.0000  0.0039  0.0000 </r>
        <r>  0.0000  0.0038  0.0000 </r>
       </set>
       <set comment="band 7">
        <r>  0.0003  0.0002  0.4073 </r>
        <r>  0.0003  0.0002  0.5774 </r>
        <r>  0.0000  0.0011  0.0000 </r>
        <r>  0.0001  0.0012  0.0000 </r>
       </set>
       <set comment="band 8">
        <r>  0.0003  0.0002  0.6198 </r>
        <r>  0.0003  0.0002  0.3647 </r>
        <r>  0.0001  0.0013  0.0000 </r>
        <r>  0.0000  0.0012  0.0000 </r>
       </set>
       <set comment="band 9">
        <r>  0.0001  0.0001  0.3312 </r>
        <r>  0.0001  0.0001  0.6589 </r>
        <r>  0.0001  0.0005  0.0000 </r>
        <r>  0.0000  0.0006  0.0000 </r>
       </set>
       <set comment="band 10">
        <r>  0.0001  0.0001  0.6209 </r>
        <r>  0.0001  0.0001  0.3699 </r>
        <r>  0.0000  0.0008  0.0000 </r>
        <r>  0.0001  0.0006  0.0000 </r>
       </set>
       <set comment="band 11">
        <r>  0.0122  0.0218  0.2739 </r>
        <r>  0.0111  0.0224  0.2678 </r>
        <r>  0.1346  0.0013  0.0000 </r>
        <r>  0.1335  0.0013  0.0000 </r>
       </set>
       <set comment="band 12">
        <r>  0.0063  0.0249  0.2617 </r>
        <r>  0.0074  0.0242  0.2678 </r>
        <r>  0.1424  0.0005  0.0000 </r>
        <r>  0.1434  0.0005  0.0000 </r>
       </set>
       <set comment="band 13">
        <r>  0.1814  0.0162  0.0137 </r>
        <r>  0.1820  0.0222  0.0093 </r>
        <r>  0.0008  0.1387  0.0000 </r>
        <r>  0.0027  0.1309  0.0000 </r>
       </set>
       <set comment="band 14">
        <r>  0.1763  0.0235  0.0116 </r>
        <r>  0.1751  0.0173  0.0160 </r>
        <r>  0.0074  0.1306  0.0000 </r>
        <r>  0.0053  0.1391  0.0000 </r>
       </set>
       <set comment="band 15">
        <r>  0.0099  0.1048  0.0165 </r>
        <r>  0.0107  0.1046  0.0162 </r>
        <r>  0.0008  0.1711  0.0000 </r>
        <r>  0.0011  0.1711  0.0000 </r>
       </set>
       <set comment="band 16">
        <r>  0.0062  0.1011  0.0218 </r>
        <r>  0.0059  0.1017  0.0221 </r>
        <r>  0.0012  0.1823  0.0000 </r>
        <r>  0.0011  0.1806  0.0000 </r>
       </set>
       <set comment="band 17">
        <r>  0.0055  0.0858  0.0223 </r>
        <r>  0.0057  0.0847  0.0228 </r>
        <r>  0.0014  0.2455  0.0000 </r>
        <r>  0.0014  0.2490  0.0000 </r>
       </set>
       <set comment="band 18">
        <r>  0.0005  0.0818  0.0249 </r>
        <r>  0.0004  0.0827  0.0243 </r>
        <r>  0.0000  0.2608  0.0000 </r>
        <r>  0.0000  0.2583  0.0000 </r>
       </set>
       <set comment="band 19">
        <r>  0.0822  0.0783  0.0327 </r>
        <r>  0.0797  0.0830  0.0514 </r>
        <r>  0.0439  0.0425  0.0000 </r>
        <r>  0.0419  0.0460  0.0000 </r>
       </set>
       <set comment="band 20">
        <r>  0.0874  0.0850  0.0535 </r>
        <r>  0.0795  0.0790  0.0282 </r>
        <r>  0.0405  0.0537  0.0000 </r>
        <r>  0.0438  0.0508  0.0000 </r>
       </set>
       <set comment="band 21">
        <r>  0.0218  0.0660  0.0412 </r>
        <r>  0.0872  0.0779  0.0625 </r>
        <r>  0.0134  0.0989  0.0000 </r>
        <r>  0.0110  0.0835  0.0000 </r>
       </set>
       <set comment="band 22">
        <r>  0.0891  0.0529  0.0627 </r>
        <r>  0.0281  0.0416  0.0469 </r>
        <r>  0.0037  0.1171  0.0000 </r>
        <r>  0.0038  0.1349  0.0000 </r>
       </set>
       <set comment="band 23">
        <r>  0.0582  0.0661  0.0168 </r>
        <r>  0.1008  0.0419  0.0184 </r>
        <r>  0.0010  0.1872  0.0000 </r>
        <r>  0.0064  0.1779  0.0000 </r>
       </set>
       <set comment="band 24">
        <r>  0.0940  0.0408  0.0213 </r>
        <r>  0.0560  0.0668  0.0207 </r>
        <r>  0.0045  0.1810  0.0000 </r>
        <r>  0.0001  0.1870  0.0000 </r>
       </set>
      </set>
      <set comment="kpoint 76">
       <set comment="band 1">
        <r>  0.0041  0.0179  0.2470 </r>
        <r>  0.0041  0.0178  0.2468 </r>
        <r>  0.1666  0.0000  0.0000 </r>
        <r>  0.1668  0.0000  0.0000 </r>
       </set>
       <set comment="band 2">
        <r>  0.0041  0.0178  0.2468 </r>
        <r>  0.0041  0.0179  0.2470 </r>
        <r>  0.1668  0.0000  0.0000 </r>
        <r>  0.1666  0.0000  0.0000 </r>
       </set>
       <set comment="band 3">
        <r>  0.0000  0.0004  0.4864 </r>
        <r>  0.0000  0.0004  0.4864 </r>
        <r>  0.0000  0.0048  0.0000 </r>
        <r>  0.0000  0.0048  0.0000 </r>
       </set>
       <set comment="band 4">
        <r>  0.0003  0.0005  0.4859 </r>
        <r>  0.0003  0.0005  0.4859 </r>
        <r>  0.0002  0.0045  0.0000 </r>
        <r>  0.0002  0.0045  0.0000 </r>
       </set>
       <set comment="band 5">
        <r>  0.0003  0.0005  0.4859 </r>
        <r>  0.0003  0.0005  0.4859 </r>
        <r>  0.0002  0.0045  0.0000 </r>
        <r>  0.0002  0.0045  0.0000 </r>
       </set>
       <set comment="band 6">
        <r>  0.0000  0.0003  0.4894 </r>
        <r>  0.0000  0.0003  0.4894 </r>
        <r>  0.0000  0.0038  0.0000 </r>
        <r>  0.0000  0.0038  0.0000 </r>
       </set>
       <set comment="band 7">
        <r>  0.0000  0.0002  0.4937 </r>
        <r>  0.0000  0.0002  0.4937 </r>
        <r>  0.0000  0.0001  0.0000 </r>
        <r>  0.0000  0.0001  0.0000 </r>
       </set>
       <set comment="band 8">
        <r>  0.0000  0.0001  0.4943 </r>
        <r>  0.0000  0.0001  0.4943 </r>
        <r>  0.0000  0.0001  0.0000 </r>
        <r>  0.0000  0.0001  0.0000 </r>
       </set>
       <set comment="band 9">
        <r>  0.0003  0.0001  0.4941 </r>
        <r>  0.0003  0.0001  0.4936 </r>
        <r>  0.0000  0.0015  0.0000 </r>
        <r>  0.0000  0.0015  0.0000 </r>
       </set>
       <set comment="band 10">
        <r>  0.0003  0.0001  0.4936 </r>
        <r>  0.0003  0.0001  0.4941 </r>
        <r>  0.0000  0.0015  0.0000 </r>
        <r>  0.0000  0.0015  0.0000 </r>
       </set>
       <set comment="band 11">
        <r>  0.0063  0.0242  0.2659 </r>
        <r>  0.0063  0.0242  0.2658 </r>
        <r>  0.1444  0.0002  0.0000 </r>
        <r>  0.1445  0.0002  0.0000 </r>
       </set>
       <set comment="band 12">
        <r>  0.0063  0.0242  0.2658 </r>
        <r>  0.0063  0.0242  0.2659 </r>
        <r>  0.1445  0.0002  0.0000 </r>
        <r>  0.1444  0.0002  0.0000 </r>
       </set>
       <set comment="band 13">
        <r>  0.1941  0.0138  0.0102 </r>
        <r>  0.1941  0.0138  0.0102 </r>
        <r>  0.0012  0.1367  0.0000 </r>
        <r>  0.0012  0.1367  0.0000 </r>
       </set>
       <set comment="band 14">
        <r>  0.1941  0.0138  0.0102 </r>
        <r>  0.1941  0.0138  0.0102 </r>
        <r>  0.0012  0.1367  0.0000 </r>
        <r>  0.0012  0.1367  0.0000 </r>
       </set>
       <set comment="band 15">
        <r>  0.0000  0.1117  0.0150 </r>
        <r>  0.0000  0.1117  0.0150 </r>
        <r>  0.0000  0.1634  0.0000 </r>
        <r>  0.0000  0.1634  0.0000 </r>
       </set>
       <set comment="band 16">
        <r>  0.0000  0.1069  0.0206 </r>
        <r>  0.0000  0.1069  0.0206 </r>
        <r>  0.0000  0.1738  0.0000 </r>
        <r>  0.0000  0.1738  0.0000 </r>
       </set>
       <set comment="band 17">
        <r>  0.0019  0.0840  0.0233 </r>
        <r>  0.0019  0.0840  0.0233 </r>
        <r>  0.0004  0.2564  0.0000 </r>
        <r>  0.0004  0.2564  0.0000 </r>
       </set>
       <set comment="band 18">
        <r>  0.0019  0.0840  0.0233 </r>
        <r>  0.0019  0.0840  0.0233 </r>
        <r>  0.0004  0.2564  0.0000 </r>
        <r>  0.0004  0.2564  0.0000 </r>
       </set>
       <set comment="band 19">
        <r>  0.1203  0.0937  0.0353 </r>
        <r>  0.1203  0.0937  0.0353 </r>
        <r>  0.0502  0.0237  0.0000 </r>
        <r>  0.0502  0.0237  0.0000 </r>
       </set>
       <set comment="band 20">
        <r>  0.1203  0.0937  0.0353 </r>
        <r>  0.1203  0.0937  0.0353 </r>
        <r>  0.0502  0.0237  0.0000 </r>
        <r>  0.0502  0.0237  0.0000 </r>
       </set>
       <set comment="band 21">
        <r>  0.0000  0.0597  0.0658 </r>
        <r>  0.0000  0.0597  0.0658 </r>
        <r>  0.0000  0.1065  0.0000 </r>
        <r>  0.0000  0.1065  0.0000 </r>
       </set>
       <set comment="band 22">
        <r>  0.0000  0.0391  0.0655 </r>
        <r>  0.0000  0.0391  0.0655 </r>
        <r>  0.0000  0.1462  0.0000 </r>
        <r>  0.0000  0.1462  0.0000 </r>
       </set>
       <set comment="band 23">
        <r>  0.0953  0.0436  0.0118 </r>
        <r>  0.0953  0.0435  0.0118 </r>
        <r>  0.0013  0.2032  0.0000 </r>
        <r>  0.0013  0.2033  0.0000 </r>
       </set>
       <set comment="band 24">
        <r>  0.0953  0.0435  0.0118 </r>
        <r>  0.0953  0.0436  0.0118 </r>
        <r>  0.0013  0.2033  0.0000 </r>
        <r>  0.0013  0.2032  0.0000 </r>
       </set>
      </set>
     </set>
    </set>
   </array>
  </projected>
 </calculation>
 <structure name="finalpos" >
  <crystal>
   <varray name="basis" >
    <v>       3.19692183       0.00000000       0.00000000 </v>
    <v>      -1.59846092       2.76861552      -0.00000000 </v>
    <v>       0.00000000       0.00000000       5.20516940 </v>
   </varray>
   <i name="volume">     46.07120112 </i>
   <varray name="rec_basis" >
    <v>       0.31280089       0.18059568      -0.00000000 </v>
    <v>       0.00000000       0.36119136      -0.00000000 </v>
    <v>      -0.00000000      -0.00000000       0.19211671 </v>
   </varray>
  </crystal>
  <varray name="positions" >
   <v>       0.33333333       0.66666667      -0.00086277 </v>
   <v>       0.66666667       0.33333333       0.49913723 </v>
   <v>       0.33333333       0.66666667       0.37586277 </v>
   <v>       0.66666667       0.33333333       0.87586277 </v>
  </varray>
 </structure>
</modeling>
