unknown system                          
           1
     3.180000    0.000000    0.000000
    -1.590000    2.753961    0.000000
     0.000000    0.000000    5.166000
   Ga   N 
     2     2
Direct configuration=     1
   0.33333333  0.66666667  0.00000000
   0.66666667  0.33333333  0.50000000
   0.33333333  0.66666667  0.37500000
   0.66666667  0.33333333  0.87500000
unknown system                          
           1
     3.213970    0.000000    0.000000
    -1.606985    2.783380   -0.000000
     0.000000    0.000000    5.257803
   Ga   N 
     2     2
Direct configuration=     2
   0.33333333  0.66666667 -0.00125001
   0.66666667  0.33333333  0.49874999
   0.33333333  0.66666667  0.37625001
   0.66666667  0.33333333  0.87625001
unknown system                          
           1
     3.195973    0.000000    0.000000
    -1.597986    2.767793   -0.000000
     0.000000    0.000000    5.209165
   Ga   N 
     2     2
Direct configuration=     3
   0.33333333  0.66666667 -0.00059931
   0.66666667  0.33333333  0.49940069
   0.33333333  0.66666667  0.37559931
   0.66666667  0.33333333  0.87559931
unknown system                          
           1
     3.195876    0.000000    0.000000
    -1.597938    2.767710   -0.000000
     0.000000    0.000000    5.208904
   Ga   N 
     2     2
Direct configuration=     4
   0.33333333  0.66666667 -0.00059579
   0.66666667  0.33333333  0.49940421
   0.33333333  0.66666667  0.37559579
   0.66666667  0.33333333  0.87559579
unknown system                          
           1
     3.195899    0.000000    0.000000
    -1.597949    2.767730   -0.000000
     0.000000    0.000000    5.208966
   Ga   N 
     2     2
Direct configuration=     5
   0.33333333  0.66666667 -0.00059662
   0.66666667  0.33333333  0.49940338
   0.33333333  0.66666667  0.37559662
   0.66666667  0.33333333  0.87559662
unknown system                          
           1
     3.195868    0.000000    0.000000
    -1.597934    2.767703   -0.000000
     0.000000    0.000000    5.207562
   Ga   N 
     2     2
Direct configuration=     6
   0.33333333  0.66666667 -0.00077683
   0.66666667  0.33333333  0.49922317
   0.33333333  0.66666667  0.37577683
   0.66666667  0.33333333  0.87577683
unknown system                          
           1
     3.195861    0.000000    0.000000
    -1.597931    2.767697   -0.000000
     0.000000    0.000000    5.207232
   Ga   N 
     2     2
Direct configuration=     7
   0.33333333  0.66666667 -0.00081911
   0.66666667  0.33333333  0.49918089
   0.33333333  0.66666667  0.37581911
   0.66666667  0.33333333  0.87581911
unknown system                          
           1
     3.196922    0.000000    0.000000
    -1.598461    2.768616   -0.000000
     0.000000    0.000000    5.205169
   Ga   N 
     2     2
Direct configuration=     8
   0.33333333  0.66666667 -0.00086277
   0.66666667  0.33333333  0.49913723
   0.33333333  0.66666667  0.37586277
   0.66666667  0.33333333  0.87586277
