   2   2   1   0
  0.2016476E+02  0.3849279E-09  0.3849279E-09  0.3849279E-09  0.5000000E-15
  1.000000000000000E-004
  CAR 
 unknown system                          
     15.19668371     -7.20797411  301      5.61574124      1.00000000
     -7.208  0.0000E+00  0.0000E+00
     -7.133  0.0000E+00  0.0000E+00
     -7.059  0.0000E+00  0.0000E+00
     -6.984  0.0000E+00  0.0000E+00
     -6.909  0.0000E+00  0.0000E+00
     -6.835  0.0000E+00  0.0000E+00
     -6.760  0.0000E+00  0.0000E+00
     -6.685  0.0000E+00  0.0000E+00
     -6.611  0.0000E+00  0.0000E+00
     -6.536  0.0000E+00  0.0000E+00
     -6.461  0.0000E+00  0.0000E+00
     -6.386  0.0000E+00  0.0000E+00
     -6.312  0.0000E+00  0.0000E+00
     -6.237  0.0000E+00  0.0000E+00
     -6.162  0.4033E-04  0.3651E-06
     -6.088  0.5671E-03  0.1925E-04
     -6.013  0.1704E-02  0.1003E-03
     -5.938  0.3451E-02  0.2889E-03
     -5.864  0.5807E-02  0.6309E-03
     -5.789  0.8774E-02  0.1172E-02
     -5.714  0.1235E-01  0.1957E-02
     -5.640  0.1316E-01  0.2959E-02
     -5.565  0.1252E-01  0.3910E-02
     -5.490  0.1308E-01  0.4859E-02
     -5.416  0.1402E-01  0.5871E-02
     -5.341  0.1500E-01  0.6954E-02
     -5.266  0.1601E-01  0.8112E-02
     -5.192  0.1705E-01  0.9347E-02
     -5.117  0.1813E-01  0.1066E-01
     -5.042  0.1924E-01  0.1206E-01
     -4.968  0.2038E-01  0.1353E-01
     -4.893  0.2155E-01  0.1510E-01
     -4.818  0.2275E-01  0.1675E-01
     -4.743  0.2393E-01  0.1850E-01
     -4.669  0.2509E-01  0.2033E-01
     -4.594  0.2623E-01  0.2224E-01
     -4.519  0.2735E-01  0.2424E-01
     -4.445  0.2845E-01  0.2633E-01
     -4.370  0.2968E-01  0.2849E-01
     -4.295  0.3370E-01  0.3085E-01
     -4.221  0.3764E-01  0.3352E-01
     -4.146  0.4086E-01  0.3645E-01
     -4.071  0.4335E-01  0.3960E-01
     -3.997  0.4512E-01  0.4291E-01
     -3.922  0.4615E-01  0.4632E-01
     -3.847  0.4646E-01  0.4978E-01
     -3.773  0.4604E-01  0.5324E-01
     -3.698  0.4489E-01  0.5664E-01
     -3.623  0.4302E-01  0.5993E-01
     -3.549  0.4042E-01  0.6305E-01
     -3.474  0.4229E-01  0.6610E-01
     -3.399  0.4442E-01  0.6935E-01
     -3.325  0.4508E-01  0.7270E-01
     -3.250  0.4427E-01  0.7604E-01
     -3.175  0.4198E-01  0.7927E-01
     -3.100  0.6164E-01  0.8313E-01
     -3.026  0.4431E-01  0.8668E-01
     -2.951  0.3803E-01  0.8975E-01
     -2.876  0.3208E-01  0.9237E-01
     -2.802  0.2647E-01  0.9455E-01
     -2.727  0.2119E-01  0.9633E-01
     -2.652  0.1625E-01  0.9773E-01
     -2.578  0.1165E-01  0.9877E-01
     -2.503  0.7388E-02  0.9947E-01
     -2.428  0.3460E-02  0.9988E-01
     -2.354  0.0000E+00  0.1000E+00
     -2.279  0.0000E+00  0.1000E+00
     -2.204  0.0000E+00  0.1000E+00
     -2.130  0.0000E+00  0.1000E+00
     -2.055  0.0000E+00  0.1000E+00
     -1.980  0.0000E+00  0.1000E+00
     -1.906  0.0000E+00  0.1000E+00
     -1.831  0.0000E+00  0.1000E+00
     -1.756  0.0000E+00  0.1000E+00
     -1.681  0.2991E-02  0.1001E+00
     -1.607  0.6679E-02  0.1005E+00
     -1.532  0.1097E-01  0.1011E+00
     -1.457  0.1587E-01  0.1021E+00
     -1.383  0.2138E-01  0.1035E+00
     -1.308  0.2749E-01  0.1053E+00
     -1.233  0.3420E-01  0.1076E+00
     -1.159  0.4152E-01  0.1104E+00
     -1.084  0.4945E-01  0.1138E+00
     -1.009  0.5798E-01  0.1178E+00
     -0.935  0.1117E+00  0.1250E+00
     -0.860  0.6383E-01  0.1312E+00
     -0.785  0.5510E-01  0.1353E+00
     -0.711  0.5349E-01  0.1394E+00
     -0.636  0.4828E-01  0.1432E+00
     -0.561  0.4028E-01  0.1465E+00
     -0.487  0.3790E-01  0.1494E+00
     -0.412  0.3585E-01  0.1522E+00
     -0.337  0.3386E-01  0.1548E+00
     -0.263  0.3195E-01  0.1572E+00
     -0.188  0.3011E-01  0.1596E+00
     -0.113  0.2834E-01  0.1617E+00
     -0.038  0.2664E-01  0.1638E+00
      0.036  0.2501E-01  0.1657E+00
      0.111  0.2345E-01  0.1675E+00
      0.186  0.2196E-01  0.1692E+00
      0.260  0.2054E-01  0.1708E+00
      0.335  0.1920E-01  0.1723E+00
      0.410  0.1790E-01  0.1737E+00
      0.484  0.1668E-01  0.1750E+00
      0.559  0.1557E-01  0.1762E+00
      0.634  0.1456E-01  0.1773E+00
      0.708  0.1365E-01  0.1784E+00
      0.783  0.1284E-01  0.1793E+00
      0.858  0.1214E-01  0.1803E+00
      0.932  0.1153E-01  0.1812E+00
      1.007  0.1103E-01  0.1820E+00
      1.082  0.1063E-01  0.1828E+00
      1.156  0.1033E-01  0.1836E+00
      1.231  0.1010E-01  0.1844E+00
      1.306  0.9882E-02  0.1851E+00
      1.380  0.9665E-02  0.1858E+00
      1.455  0.9454E-02  0.1865E+00
      1.530  0.9248E-02  0.1872E+00
      1.605  0.9048E-02  0.1879E+00
      1.679  0.6346E-01  0.1894E+00
      1.754  0.6496E-01  0.1973E+00
      1.829  0.5797E-01  0.2015E+00
      1.903  0.6082E-01  0.2060E+00
      1.978  0.6278E-01  0.2106E+00
      2.053  0.6387E-01  0.2153E+00
      2.127  0.6408E-01  0.2201E+00
      2.202  0.6341E-01  0.2249E+00
      2.277  0.6135E-01  0.2295E+00
      2.351  0.5832E-01  0.2340E+00
      2.426  0.5541E-01  0.2383E+00
      2.501  0.5262E-01  0.2423E+00
      2.575  0.4996E-01  0.2461E+00
      2.650  0.4710E-01  0.2498E+00
      2.725  0.7950E-01  0.2547E+00
      2.799  0.7162E-01  0.2599E+00
      2.874  0.7913E-01  0.2655E+00
      2.949  0.9135E-01  0.2718E+00
      3.023  0.1216E+00  0.2797E+00
      3.098  0.8275E-01  0.2878E+00
      3.173  0.8133E-01  0.2939E+00
      3.248  0.7981E-01  0.2999E+00
      3.322  0.7816E-01  0.3058E+00
      3.397  0.7640E-01  0.3116E+00
      3.472  0.7453E-01  0.3172E+00
      3.546  0.7253E-01  0.3227E+00
      3.621  0.7043E-01  0.3281E+00
      3.696  0.6803E-01  0.3332E+00
      3.770  0.6663E-01  0.3382E+00
      3.845  0.6693E-01  0.3432E+00
      3.920  0.6892E-01  0.3483E+00
      3.994  0.6837E-01  0.3534E+00
      4.069  0.6623E-01  0.3585E+00
      4.144  0.6343E-01  0.3633E+00
      4.218  0.5994E-01  0.3679E+00
      4.293  0.5567E-01  0.3723E+00
      4.368  0.5063E-01  0.3762E+00
      4.442  0.4480E-01  0.3798E+00
      4.517  0.3876E-01  0.3829E+00
      4.592  0.3629E-01  0.3857E+00
      4.666  0.3341E-01  0.3883E+00
      4.741  0.3014E-01  0.3907E+00
      4.816  0.2647E-01  0.3928E+00
      4.891  0.2253E-01  0.3946E+00
      4.965  0.1832E-01  0.3962E+00
      5.040  0.1384E-01  0.3974E+00
      5.115  0.1040E-01  0.3983E+00
      5.189  0.7530E-02  0.3989E+00
      5.264  0.5125E-02  0.3994E+00
      5.339  0.3182E-02  0.3997E+00
      5.413  0.1699E-02  0.3999E+00
      5.488  0.6780E-03  0.4000E+00
      5.563  0.1178E-03  0.4000E+00
      5.637  0.0000E+00  0.4000E+00
      5.712  0.0000E+00  0.4000E+00
      5.787  0.0000E+00  0.4000E+00
      5.861  0.0000E+00  0.4000E+00
      5.936  0.0000E+00  0.4000E+00
      6.011  0.0000E+00  0.4000E+00
      6.085  0.0000E+00  0.4000E+00
      6.160  0.0000E+00  0.4000E+00
      6.235  0.2059E-03  0.4000E+00
      6.310  0.3403E-02  0.4001E+00
      6.384  0.5853E-02  0.4005E+00
      6.459  0.7556E-02  0.4010E+00
      6.534  0.8513E-02  0.4016E+00
      6.608  0.8723E-02  0.4022E+00
      6.683  0.8408E-02  0.4029E+00
      6.758  0.1005E-01  0.4036E+00
      6.832  0.1189E-01  0.4044E+00
      6.907  0.1394E-01  0.4054E+00
      6.982  0.1625E-01  0.4065E+00
      7.056  0.1895E-01  0.4078E+00
      7.131  0.2199E-01  0.4093E+00
      7.206  0.3047E-01  0.4112E+00
      7.280  0.4564E-01  0.4140E+00
      7.355  0.6593E-01  0.4181E+00
      7.430  0.8964E-01  0.4240E+00
      7.504  0.1039E+00  0.4313E+00
      7.579  0.1061E+00  0.4392E+00
      7.654  0.9624E-01  0.4468E+00
      7.728  0.9311E-01  0.4538E+00
      7.803  0.8693E-01  0.4606E+00
      7.878  0.7806E-01  0.4668E+00
      7.953  0.7009E-01  0.4723E+00
      8.027  0.6304E-01  0.4772E+00
      8.102  0.5688E-01  0.4817E+00
      8.177  0.5163E-01  0.4858E+00
      8.251  0.4704E-01  0.4894E+00
      8.326  0.4295E-01  0.4928E+00
      8.401  0.3938E-01  0.4959E+00
      8.475  0.3633E-01  0.4987E+00
      8.550  0.3387E-01  0.5013E+00
      8.625  0.3204E-01  0.5038E+00
      8.699  0.3085E-01  0.5061E+00
      8.774  0.3045E-01  0.5084E+00
      8.849  0.3173E-01  0.5107E+00
      8.923  0.3429E-01  0.5132E+00
      8.998  0.4681E-01  0.5167E+00
      9.073  0.5182E-01  0.5199E+00
      9.147  0.6862E-01  0.5244E+00
      9.222  0.8489E-01  0.5302E+00
      9.297  0.1006E+00  0.5371E+00
      9.371  0.1158E+00  0.5452E+00
      9.446  0.1255E+00  0.5543E+00
      9.521  0.1406E+00  0.5637E+00
      9.596  0.1769E+00  0.5757E+00
      9.670  0.1293E+00  0.5878E+00
      9.745  0.1125E+00  0.5965E+00
      9.820  0.1047E+00  0.6046E+00
      9.894  0.9463E-01  0.6121E+00
      9.969  0.9182E-01  0.6190E+00
     10.044  0.1148E+00  0.6272E+00
     10.118  0.1045E+00  0.6350E+00
     10.193  0.1057E+00  0.6427E+00
     10.268  0.1092E+00  0.6508E+00
     10.342  0.1047E+00  0.6588E+00
     10.417  0.6174E-01  0.6658E+00
     10.492  0.2248E-01  0.6685E+00
     10.566  0.2319E-01  0.6702E+00
     10.641  0.2496E-01  0.6720E+00
     10.716  0.2780E-01  0.6739E+00
     10.790  0.3172E-01  0.6762E+00
     10.865  0.3671E-01  0.6787E+00
     10.940  0.4277E-01  0.6817E+00
     11.014  0.4866E-01  0.6851E+00
     11.089  0.4772E-01  0.6887E+00
     11.164  0.4650E-01  0.6922E+00
     11.239  0.4500E-01  0.6956E+00
     11.313  0.4287E-01  0.6989E+00
     11.388  0.3907E-01  0.7020E+00
     11.463  0.3353E-01  0.7047E+00
     11.537  0.3211E-01  0.7071E+00
     11.612  0.3222E-01  0.7095E+00
     11.687  0.3234E-01  0.7120E+00
     11.761  0.3248E-01  0.7144E+00
     11.836  0.3265E-01  0.7168E+00
     11.911  0.3283E-01  0.7192E+00
     11.985  0.3303E-01  0.7217E+00
     12.060  0.3325E-01  0.7242E+00
     12.135  0.3349E-01  0.7267E+00
     12.209  0.3376E-01  0.7292E+00
     12.284  0.3404E-01  0.7317E+00
     12.359  0.3434E-01  0.7343E+00
     12.433  0.3466E-01  0.7368E+00
     12.508  0.3500E-01  0.7394E+00
     12.583  0.3536E-01  0.7421E+00
     12.657  0.3574E-01  0.7447E+00
     12.732  0.3614E-01  0.7474E+00
     12.807  0.3657E-01  0.7501E+00
     12.882  0.3701E-01  0.7529E+00
     12.956  0.3747E-01  0.7557E+00
     13.031  0.3795E-01  0.7585E+00
     13.106  0.4125E-01  0.7613E+00
     13.180  0.6721E-01  0.7655E+00
     13.255  0.6822E-01  0.7708E+00
     13.330  0.7178E-01  0.7762E+00
     13.404  0.4429E-01  0.7802E+00
     13.479  0.3742E-01  0.7832E+00
     13.554  0.3272E-01  0.7858E+00
     13.628  0.2981E-01  0.7881E+00
     13.703  0.2833E-01  0.7903E+00
     13.778  0.2597E-01  0.7923E+00
     13.852  0.2273E-01  0.7941E+00
     13.927  0.1860E-01  0.7957E+00
     14.002  0.1359E-01  0.7969E+00
     14.076  0.2386E-01  0.7984E+00
     14.151  0.1076E-01  0.7998E+00
     14.226  0.0000E+00  0.8000E+00
     14.300  0.0000E+00  0.8000E+00
     14.375  0.0000E+00  0.8000E+00
     14.450  0.0000E+00  0.8000E+00
     14.525  0.0000E+00  0.8000E+00
     14.599  0.0000E+00  0.8000E+00
     14.674  0.0000E+00  0.8000E+00
     14.749  0.0000E+00  0.8000E+00
     14.823  0.0000E+00  0.8000E+00
     14.898  0.0000E+00  0.8000E+00
     14.973  0.0000E+00  0.8000E+00
     15.047  0.0000E+00  0.8000E+00
     15.122  0.0000E+00  0.8000E+00
     15.197  0.0000E+00  0.8000E+00
     15.19668371     -7.20797411  301      5.61574124      1.00000000
     -7.208  0.0000E+00  0.0000E+00  0.0000E+00
     -7.133  0.0000E+00  0.0000E+00  0.0000E+00
     -7.059  0.0000E+00  0.0000E+00  0.0000E+00
     -6.984  0.0000E+00  0.0000E+00  0.0000E+00
     -6.909  0.0000E+00  0.0000E+00  0.0000E+00
     -6.835  0.0000E+00  0.0000E+00  0.0000E+00
     -6.760  0.0000E+00  0.0000E+00  0.0000E+00
     -6.685  0.0000E+00  0.0000E+00  0.0000E+00
     -6.611  0.0000E+00  0.0000E+00  0.0000E+00
     -6.536  0.0000E+00  0.0000E+00  0.0000E+00
     -6.461  0.0000E+00  0.0000E+00  0.0000E+00
     -6.386  0.0000E+00  0.0000E+00  0.0000E+00
     -6.312  0.0000E+00  0.0000E+00  0.0000E+00
     -6.237  0.0000E+00  0.0000E+00  0.0000E+00
     -6.162  0.1693E-03  0.3589E-05  0.0000E+00
     -6.088  0.2380E-02  0.5047E-04  0.0000E+00
     -6.013  0.7151E-02  0.1516E-03  0.0000E+00
     -5.938  0.1448E-01  0.3071E-03  0.0000E+00
     -5.864  0.2437E-01  0.5168E-03  0.0000E+00
     -5.789  0.3683E-01  0.7808E-03  0.0000E+00
     -5.714  0.5184E-01  0.1099E-02  0.0000E+00
     -5.640  0.5512E-01  0.1517E-02  0.0000E+00
     -5.565  0.5231E-01  0.1935E-02  0.0000E+00
     -5.490  0.5457E-01  0.2298E-02  0.0000E+00
     -5.416  0.5849E-01  0.2651E-02  0.0000E+00
     -5.341  0.6254E-01  0.3015E-02  0.0000E+00
     -5.266  0.6673E-01  0.3390E-02  0.0000E+00
     -5.192  0.7106E-01  0.3777E-02  0.0000E+00
     -5.117  0.7553E-01  0.4174E-02  0.0000E+00
     -5.042  0.8013E-01  0.4582E-02  0.0000E+00
     -4.968  0.8488E-01  0.5002E-02  0.0000E+00
     -4.893  0.8977E-01  0.5432E-02  0.0000E+00
     -4.818  0.9475E-01  0.5891E-02  0.0000E+00
     -4.743  0.9970E-01  0.6434E-02  0.0000E+00
     -4.669  0.1046E+00  0.7067E-02  0.0000E+00
     -4.594  0.1094E+00  0.7788E-02  0.0000E+00
     -4.519  0.1142E+00  0.8598E-02  0.0000E+00
     -4.445  0.1190E+00  0.9497E-02  0.0000E+00
     -4.370  0.1243E+00  0.1048E-01  0.0000E+00
     -4.295  0.1415E+00  0.1219E-01  0.0000E+00
     -4.221  0.1584E+00  0.1387E-01  0.0000E+00
     -4.146  0.1722E+00  0.1531E-01  0.0000E+00
     -4.071  0.1829E+00  0.1651E-01  0.0000E+00
     -3.997  0.1904E+00  0.1748E-01  0.0000E+00
     -3.922  0.1948E+00  0.1820E-01  0.0000E+00
     -3.847  0.1961E+00  0.1869E-01  0.0000E+00
     -3.773  0.1942E+00  0.1894E-01  0.0000E+00
     -3.698  0.1892E+00  0.1896E-01  0.0000E+00
     -3.623  0.1811E+00  0.1873E-01  0.0000E+00
     -3.549  0.1698E+00  0.1827E-01  0.0000E+00
     -3.474  0.1776E+00  0.2002E-01  0.0000E+00
     -3.399  0.1866E+00  0.2183E-01  0.0000E+00
     -3.325  0.1893E+00  0.2286E-01  0.0000E+00
     -3.250  0.1857E+00  0.2311E-01  0.0000E+00
     -3.175  0.1758E+00  0.2258E-01  0.0000E+00
     -3.100  0.2568E+00  0.3512E-01  0.0000E+00
     -3.026  0.1847E+00  0.2540E-01  0.0000E+00
     -2.951  0.1584E+00  0.2200E-01  0.0000E+00
     -2.876  0.1335E+00  0.1873E-01  0.0000E+00
     -2.802  0.1100E+00  0.1561E-01  0.0000E+00
     -2.727  0.8800E-01  0.1264E-01  0.0000E+00
     -2.652  0.6742E-01  0.9807E-02  0.0000E+00
     -2.578  0.4828E-01  0.7119E-02  0.0000E+00
     -2.503  0.3057E-01  0.4574E-02  0.0000E+00
     -2.428  0.1429E-01  0.2173E-02  0.0000E+00
     -2.354  0.0000E+00  0.0000E+00  0.0000E+00
     -2.279  0.0000E+00  0.0000E+00  0.0000E+00
     -2.204  0.0000E+00  0.0000E+00  0.0000E+00
     -2.130  0.0000E+00  0.0000E+00  0.0000E+00
     -2.055  0.0000E+00  0.0000E+00  0.0000E+00
     -1.980  0.0000E+00  0.0000E+00  0.0000E+00
     -1.906  0.0000E+00  0.0000E+00  0.0000E+00
     -1.831  0.0000E+00  0.0000E+00  0.0000E+00
     -1.756  0.0000E+00  0.0000E+00  0.0000E+00
     -1.681  0.1100E-01  0.3368E-02  0.0000E+00
     -1.607  0.2427E-01  0.7679E-02  0.0000E+00
     -1.532  0.3948E-01  0.1283E-01  0.0000E+00
     -1.457  0.5661E-01  0.1883E-01  0.0000E+00
     -1.383  0.7568E-01  0.2567E-01  0.0000E+00
     -1.308  0.9668E-01  0.3336E-01  0.0000E+00
     -1.233  0.1196E+00  0.4188E-01  0.0000E+00
     -1.159  0.1445E+00  0.5125E-01  0.0000E+00
     -1.084  0.1713E+00  0.6147E-01  0.0000E+00
     -1.009  0.2000E+00  0.7252E-01  0.0000E+00
     -0.935  0.3582E+00  0.1544E+00  0.0000E+00
     -0.860  0.1968E+00  0.9347E-01  0.0000E+00
     -0.785  0.1602E+00  0.8525E-01  0.0000E+00
     -0.711  0.1550E+00  0.8332E-01  0.0000E+00
     -0.636  0.1409E+00  0.7520E-01  0.0000E+00
     -0.561  0.1200E+00  0.6227E-01  0.0000E+00
     -0.487  0.1126E+00  0.5907E-01  0.0000E+00
     -0.412  0.1063E+00  0.5625E-01  0.0000E+00
     -0.337  0.1003E+00  0.5353E-01  0.0000E+00
     -0.263  0.9436E-01  0.5091E-01  0.0000E+00
     -0.188  0.8866E-01  0.4839E-01  0.0000E+00
     -0.113  0.8316E-01  0.4598E-01  0.0000E+00
     -0.038  0.7785E-01  0.4366E-01  0.0000E+00
      0.036  0.7274E-01  0.4144E-01  0.0000E+00
      0.111  0.6782E-01  0.3932E-01  0.0000E+00
      0.186  0.6309E-01  0.3730E-01  0.0000E+00
      0.260  0.5856E-01  0.3538E-01  0.0000E+00
      0.335  0.5423E-01  0.3356E-01  0.0000E+00
      0.410  0.5012E-01  0.3171E-01  0.0000E+00
      0.484  0.4634E-01  0.2996E-01  0.0000E+00
      0.559  0.4288E-01  0.2835E-01  0.0000E+00
      0.634  0.3975E-01  0.2688E-01  0.0000E+00
      0.708  0.3694E-01  0.2556E-01  0.0000E+00
      0.783  0.3446E-01  0.2438E-01  0.0000E+00
      0.858  0.3231E-01  0.2334E-01  0.0000E+00
      0.932  0.3048E-01  0.2244E-01  0.0000E+00
      1.007  0.2898E-01  0.2169E-01  0.0000E+00
      1.082  0.2780E-01  0.2108E-01  0.0000E+00
      1.156  0.2695E-01  0.2061E-01  0.0000E+00
      1.231  0.2632E-01  0.2025E-01  0.0000E+00
      1.306  0.2570E-01  0.1990E-01  0.0000E+00
      1.380  0.2509E-01  0.1956E-01  0.0000E+00
      1.455  0.2449E-01  0.1923E-01  0.0000E+00
      1.530  0.2389E-01  0.1891E-01  0.0000E+00
      1.605  0.2331E-01  0.1861E-01  0.0000E+00
      1.679  0.2802E-01  0.1897E+00  0.0000E+00
      1.754  0.3437E-01  0.1939E+00  0.0000E+00
      1.829  0.3509E-01  0.1725E+00  0.0000E+00
      1.903  0.3686E-01  0.1817E+00  0.0000E+00
      1.978  0.3824E-01  0.1882E+00  0.0000E+00
      2.053  0.3925E-01  0.1921E+00  0.0000E+00
      2.127  0.3986E-01  0.1932E+00  0.0000E+00
      2.202  0.4010E-01  0.1918E+00  0.0000E+00
      2.277  0.3932E-01  0.1863E+00  0.0000E+00
      2.351  0.3751E-01  0.1780E+00  0.0000E+00
      2.426  0.3581E-01  0.1701E+00  0.0000E+00
      2.501  0.3420E-01  0.1624E+00  0.0000E+00
      2.575  0.3271E-01  0.1551E+00  0.0000E+00
      2.650  0.3041E-01  0.1476E+00  0.0000E+00
      2.725  0.2647E-01  0.2664E+00  0.0000E+00
      2.799  0.2233E-01  0.2457E+00  0.0000E+00
      2.874  0.1960E-01  0.2788E+00  0.0000E+00
      2.949  0.1793E-01  0.3290E+00  0.0000E+00
      3.023  0.1712E-01  0.4500E+00  0.0000E+00
      3.098  0.1592E-01  0.3029E+00  0.0000E+00
      3.173  0.1485E-01  0.2992E+00  0.0000E+00
      3.248  0.1381E-01  0.2949E+00  0.0000E+00
      3.322  0.1280E-01  0.2902E+00  0.0000E+00
      3.397  0.1184E-01  0.2850E+00  0.0000E+00
      3.472  0.1091E-01  0.2793E+00  0.0000E+00
      3.546  0.1002E-01  0.2731E+00  0.0000E+00
      3.621  0.9161E-02  0.2664E+00  0.0000E+00
      3.696  0.8344E-02  0.2586E+00  0.0000E+00
      3.770  0.7551E-02  0.2554E+00  0.0000E+00
      3.845  0.6775E-02  0.2597E+00  0.0000E+00
      3.920  0.6018E-02  0.2715E+00  0.0000E+00
      3.994  0.5348E-02  0.2716E+00  0.0000E+00
      4.069  0.4736E-02  0.2645E+00  0.0000E+00
      4.144  0.4166E-02  0.2544E+00  0.0000E+00
      4.218  0.3631E-02  0.2413E+00  0.0000E+00
      4.293  0.3119E-02  0.2248E+00  0.0000E+00
      4.368  0.2630E-02  0.2050E+00  0.0000E+00
      4.442  0.2164E-02  0.1819E+00  0.0000E+00
      4.517  0.1732E-02  0.1577E+00  0.0000E+00
      4.592  0.1417E-02  0.1482E+00  0.0000E+00
      4.666  0.1134E-02  0.1369E+00  0.0000E+00
      4.741  0.8860E-03  0.1238E+00  0.0000E+00
      4.816  0.6711E-03  0.1090E+00  0.0000E+00
      4.891  0.4884E-03  0.9294E-01  0.0000E+00
      4.965  0.3378E-03  0.7573E-01  0.0000E+00
      5.040  0.2191E-03  0.5737E-01  0.0000E+00
      5.115  0.1621E-03  0.4310E-01  0.0000E+00
      5.189  0.1174E-03  0.3122E-01  0.0000E+00
      5.264  0.7993E-04  0.2125E-01  0.0000E+00
      5.339  0.4962E-04  0.1319E-01  0.0000E+00
      5.413  0.2650E-04  0.7045E-02  0.0000E+00
      5.488  0.1057E-04  0.2811E-02  0.0000E+00
      5.563  0.1837E-05  0.4885E-03  0.0000E+00
      5.637  0.0000E+00  0.0000E+00  0.0000E+00
      5.712  0.0000E+00  0.0000E+00  0.0000E+00
      5.787  0.0000E+00  0.0000E+00  0.0000E+00
      5.861  0.0000E+00  0.0000E+00  0.0000E+00
      5.936  0.0000E+00  0.0000E+00  0.0000E+00
      6.011  0.0000E+00  0.0000E+00  0.0000E+00
      6.085  0.0000E+00  0.0000E+00  0.0000E+00
      6.160  0.0000E+00  0.0000E+00  0.0000E+00
      6.235  0.2140E-03  0.1796E-03  0.0000E+00
      6.310  0.3500E-02  0.3060E-02  0.0000E+00
      6.384  0.5943E-02  0.5462E-02  0.0000E+00
      6.459  0.7542E-02  0.7387E-02  0.0000E+00
      6.534  0.8297E-02  0.8834E-02  0.0000E+00
      6.608  0.8208E-02  0.9804E-02  0.0000E+00
      6.683  0.7519E-02  0.1046E-01  0.0000E+00
      6.758  0.8948E-02  0.1271E-01  0.0000E+00
      6.832  0.1057E-01  0.1524E-01  0.0000E+00
      6.907  0.1238E-01  0.1807E-01  0.0000E+00
      6.982  0.1443E-01  0.2125E-01  0.0000E+00
      7.056  0.1681E-01  0.2494E-01  0.0000E+00
      7.131  0.1967E-01  0.2917E-01  0.0000E+00
      7.206  0.3461E-01  0.3901E-01  0.0000E+00
      7.280  0.6241E-01  0.5676E-01  0.0000E+00
      7.355  0.9904E-01  0.8122E-01  0.0000E+00
      7.430  0.1411E+00  0.1102E+00  0.0000E+00
      7.504  0.1639E+00  0.1296E+00  0.0000E+00
      7.579  0.1625E+00  0.1368E+00  0.0000E+00
      7.654  0.1369E+00  0.1318E+00  0.0000E+00
      7.728  0.1285E+00  0.1313E+00  0.0000E+00
      7.803  0.1165E+00  0.1232E+00  0.0000E+00
      7.878  0.1001E+00  0.1105E+00  0.0000E+00
      7.953  0.8569E-01  0.9913E-01  0.0000E+00
      8.027  0.7316E-01  0.8918E-01  0.0000E+00
      8.102  0.6256E-01  0.8063E-01  0.0000E+00
      8.177  0.5388E-01  0.7346E-01  0.0000E+00
      8.251  0.4655E-01  0.6734E-01  0.0000E+00
      8.326  0.4023E-01  0.6209E-01  0.0000E+00
      8.401  0.3493E-01  0.5769E-01  0.0000E+00
      8.475  0.3063E-01  0.5417E-01  0.0000E+00
      8.550  0.2700E-01  0.5174E-01  0.0000E+00
      8.625  0.2389E-01  0.5048E-01  0.0000E+00
      8.699  0.2129E-01  0.5041E-01  0.0000E+00
      8.774  0.1925E-01  0.5181E-01  0.0000E+00
      8.849  0.1811E-01  0.5620E-01  0.0000E+00
      8.923  0.1785E-01  0.6287E-01  0.0000E+00
      8.998  0.2240E-01  0.9043E-01  0.0000E+00
      9.073  0.2227E-01  0.1038E+00  0.0000E+00
      9.147  0.2901E-01  0.1392E+00  0.0000E+00
      9.222  0.3634E-01  0.1723E+00  0.0000E+00
      9.297  0.4426E-01  0.2031E+00  0.0000E+00
      9.371  0.5276E-01  0.2316E+00  0.0000E+00
      9.446  0.5959E-01  0.2512E+00  0.0000E+00
      9.521  0.7454E-01  0.2833E+00  0.0000E+00
      9.596  0.9944E-01  0.3472E+00  0.0000E+00
      9.670  0.7182E-01  0.2614E+00  0.0000E+00
      9.745  0.6351E-01  0.2307E+00  0.0000E+00
      9.820  0.6025E-01  0.2158E+00  0.0000E+00
      9.894  0.5495E-01  0.1967E+00  0.0000E+00
      9.969  0.5478E-01  0.1948E+00  0.0000E+00
     10.044  0.7964E-01  0.2481E+00  0.0000E+00
     10.118  0.6636E-01  0.2342E+00  0.0000E+00
     10.193  0.6756E-01  0.2406E+00  0.0000E+00
     10.268  0.7047E-01  0.2489E+00  0.0000E+00
     10.342  0.6773E-01  0.2399E+00  0.0000E+00
     10.417  0.4398E-01  0.1463E+00  0.0000E+00
     10.492  0.2031E-01  0.5539E-01  0.0000E+00
     10.566  0.2126E-01  0.5736E-01  0.0000E+00
     10.641  0.2291E-01  0.6219E-01  0.0000E+00
     10.716  0.2526E-01  0.6988E-01  0.0000E+00
     10.790  0.2831E-01  0.8043E-01  0.0000E+00
     10.865  0.3207E-01  0.9385E-01  0.0000E+00
     10.940  0.3653E-01  0.1101E+00  0.0000E+00
     11.014  0.4132E-01  0.1259E+00  0.0000E+00
     11.089  0.4339E-01  0.1230E+00  0.0000E+00
     11.164  0.4396E-01  0.1190E+00  0.0000E+00
     11.239  0.4306E-01  0.1139E+00  0.0000E+00
     11.313  0.4007E-01  0.1070E+00  0.0000E+00
     11.388  0.3332E-01  0.9607E-01  0.0000E+00
     11.463  0.2269E-01  0.8103E-01  0.0000E+00
     11.537  0.1940E-01  0.7712E-01  0.0000E+00
     11.612  0.1895E-01  0.7721E-01  0.0000E+00
     11.687  0.1851E-01  0.7734E-01  0.0000E+00
     11.761  0.1808E-01  0.7753E-01  0.0000E+00
     11.836  0.1767E-01  0.7777E-01  0.0000E+00
     11.911  0.1727E-01  0.7806E-01  0.0000E+00
     11.985  0.1688E-01  0.7840E-01  0.0000E+00
     12.060  0.1650E-01  0.7879E-01  0.0000E+00
     12.135  0.1614E-01  0.7923E-01  0.0000E+00
     12.209  0.1579E-01  0.7972E-01  0.0000E+00
     12.284  0.1545E-01  0.8026E-01  0.0000E+00
     12.359  0.1512E-01  0.8085E-01  0.0000E+00
     12.433  0.1481E-01  0.8149E-01  0.0000E+00
     12.508  0.1451E-01  0.8218E-01  0.0000E+00
     12.583  0.1422E-01  0.8292E-01  0.0000E+00
     12.657  0.1394E-01  0.8371E-01  0.0000E+00
     12.732  0.1368E-01  0.8455E-01  0.0000E+00
     12.807  0.1343E-01  0.8544E-01  0.0000E+00
     12.882  0.1319E-01  0.8638E-01  0.0000E+00
     12.956  0.1296E-01  0.8737E-01  0.0000E+00
     13.031  0.1275E-01  0.8842E-01  0.0000E+00
     13.106  0.1342E-01  0.9539E-01  0.0000E+00
     13.180  0.2139E-01  0.1495E+00  0.0000E+00
     13.255  0.2189E-01  0.1503E+00  0.0000E+00
     13.330  0.2565E-01  0.1617E+00  0.0000E+00
     13.404  0.1697E-01  0.1033E+00  0.0000E+00
     13.479  0.1453E-01  0.8846E-01  0.0000E+00
     13.554  0.1262E-01  0.7782E-01  0.0000E+00
     13.628  0.1082E-01  0.7273E-01  0.0000E+00
     13.703  0.9129E-02  0.7199E-01  0.0000E+00
     13.778  0.7729E-02  0.6766E-01  0.0000E+00
     13.852  0.6621E-02  0.5973E-01  0.0000E+00
     13.927  0.5806E-02  0.4821E-01  0.0000E+00
     14.002  0.5283E-02  0.3309E-01  0.0000E+00
     14.076  0.8067E-02  0.6205E-01  0.0000E+00
     14.151  0.3522E-02  0.2837E-01  0.0000E+00
     14.226  0.0000E+00  0.0000E+00  0.0000E+00
     14.300  0.0000E+00  0.0000E+00  0.0000E+00
     14.375  0.0000E+00  0.0000E+00  0.0000E+00
     14.450  0.0000E+00  0.0000E+00  0.0000E+00
     14.525  0.0000E+00  0.0000E+00  0.0000E+00
     14.599  0.0000E+00  0.0000E+00  0.0000E+00
     14.674  0.0000E+00  0.0000E+00  0.0000E+00
     14.749  0.0000E+00  0.0000E+00  0.0000E+00
     14.823  0.0000E+00  0.0000E+00  0.0000E+00
     14.898  0.0000E+00  0.0000E+00  0.0000E+00
     14.973  0.0000E+00  0.0000E+00  0.0000E+00
     15.047  0.0000E+00  0.0000E+00  0.0000E+00
     15.122  0.0000E+00  0.0000E+00  0.0000E+00
     15.197  0.0000E+00  0.0000E+00  0.0000E+00
     15.19668371     -7.20797411  301      5.61574124      1.00000000
     -7.208  0.0000E+00  0.0000E+00  0.0000E+00
     -7.133  0.0000E+00  0.0000E+00  0.0000E+00
     -7.059  0.0000E+00  0.0000E+00  0.0000E+00
     -6.984  0.0000E+00  0.0000E+00  0.0000E+00
     -6.909  0.0000E+00  0.0000E+00  0.0000E+00
     -6.835  0.0000E+00  0.0000E+00  0.0000E+00
     -6.760  0.0000E+00  0.0000E+00  0.0000E+00
     -6.685  0.0000E+00  0.0000E+00  0.0000E+00
     -6.611  0.0000E+00  0.0000E+00  0.0000E+00
     -6.536  0.0000E+00  0.0000E+00  0.0000E+00
     -6.461  0.0000E+00  0.0000E+00  0.0000E+00
     -6.386  0.0000E+00  0.0000E+00  0.0000E+00
     -6.312  0.0000E+00  0.0000E+00  0.0000E+00
     -6.237  0.0000E+00  0.0000E+00  0.0000E+00
     -6.162  0.1693E-03  0.3589E-05  0.0000E+00
     -6.088  0.2380E-02  0.5047E-04  0.0000E+00
     -6.013  0.7151E-02  0.1516E-03  0.0000E+00
     -5.938  0.1448E-01  0.3071E-03  0.0000E+00
     -5.864  0.2437E-01  0.5168E-03  0.0000E+00
     -5.789  0.3683E-01  0.7808E-03  0.0000E+00
     -5.714  0.5184E-01  0.1099E-02  0.0000E+00
     -5.640  0.5512E-01  0.1517E-02  0.0000E+00
     -5.565  0.5231E-01  0.1935E-02  0.0000E+00
     -5.490  0.5457E-01  0.2298E-02  0.0000E+00
     -5.416  0.5849E-01  0.2651E-02  0.0000E+00
     -5.341  0.6254E-01  0.3015E-02  0.0000E+00
     -5.266  0.6673E-01  0.3390E-02  0.0000E+00
     -5.192  0.7106E-01  0.3777E-02  0.0000E+00
     -5.117  0.7553E-01  0.4174E-02  0.0000E+00
     -5.042  0.8013E-01  0.4582E-02  0.0000E+00
     -4.968  0.8488E-01  0.5002E-02  0.0000E+00
     -4.893  0.8977E-01  0.5432E-02  0.0000E+00
     -4.818  0.9475E-01  0.5891E-02  0.0000E+00
     -4.743  0.9970E-01  0.6434E-02  0.0000E+00
     -4.669  0.1046E+00  0.7067E-02  0.0000E+00
     -4.594  0.1094E+00  0.7788E-02  0.0000E+00
     -4.519  0.1142E+00  0.8598E-02  0.0000E+00
     -4.445  0.1190E+00  0.9497E-02  0.0000E+00
     -4.370  0.1243E+00  0.1048E-01  0.0000E+00
     -4.295  0.1415E+00  0.1219E-01  0.0000E+00
     -4.221  0.1584E+00  0.1387E-01  0.0000E+00
     -4.146  0.1722E+00  0.1531E-01  0.0000E+00
     -4.071  0.1829E+00  0.1651E-01  0.0000E+00
     -3.997  0.1904E+00  0.1748E-01  0.0000E+00
     -3.922  0.1948E+00  0.1820E-01  0.0000E+00
     -3.847  0.1961E+00  0.1869E-01  0.0000E+00
     -3.773  0.1942E+00  0.1894E-01  0.0000E+00
     -3.698  0.1892E+00  0.1896E-01  0.0000E+00
     -3.623  0.1811E+00  0.1873E-01  0.0000E+00
     -3.549  0.1698E+00  0.1827E-01  0.0000E+00
     -3.474  0.1776E+00  0.2002E-01  0.0000E+00
     -3.399  0.1866E+00  0.2183E-01  0.0000E+00
     -3.325  0.1893E+00  0.2286E-01  0.0000E+00
     -3.250  0.1857E+00  0.2311E-01  0.0000E+00
     -3.175  0.1758E+00  0.2258E-01  0.0000E+00
     -3.100  0.2568E+00  0.3512E-01  0.0000E+00
     -3.026  0.1847E+00  0.2540E-01  0.0000E+00
     -2.951  0.1584E+00  0.2200E-01  0.0000E+00
     -2.876  0.1335E+00  0.1873E-01  0.0000E+00
     -2.802  0.1100E+00  0.1561E-01  0.0000E+00
     -2.727  0.8800E-01  0.1264E-01  0.0000E+00
     -2.652  0.6742E-01  0.9807E-02  0.0000E+00
     -2.578  0.4828E-01  0.7119E-02  0.0000E+00
     -2.503  0.3057E-01  0.4574E-02  0.0000E+00
     -2.428  0.1429E-01  0.2173E-02  0.0000E+00
     -2.354  0.0000E+00  0.0000E+00  0.0000E+00
     -2.279  0.0000E+00  0.0000E+00  0.0000E+00
     -2.204  0.0000E+00  0.0000E+00  0.0000E+00
     -2.130  0.0000E+00  0.0000E+00  0.0000E+00
     -2.055  0.0000E+00  0.0000E+00  0.0000E+00
     -1.980  0.0000E+00  0.0000E+00  0.0000E+00
     -1.906  0.0000E+00  0.0000E+00  0.0000E+00
     -1.831  0.0000E+00  0.0000E+00  0.0000E+00
     -1.756  0.0000E+00  0.0000E+00  0.0000E+00
     -1.681  0.1100E-01  0.3368E-02  0.0000E+00
     -1.607  0.2427E-01  0.7679E-02  0.0000E+00
     -1.532  0.3948E-01  0.1283E-01  0.0000E+00
     -1.457  0.5661E-01  0.1883E-01  0.0000E+00
     -1.383  0.7568E-01  0.2567E-01  0.0000E+00
     -1.308  0.9668E-01  0.3336E-01  0.0000E+00
     -1.233  0.1196E+00  0.4188E-01  0.0000E+00
     -1.159  0.1445E+00  0.5125E-01  0.0000E+00
     -1.084  0.1713E+00  0.6147E-01  0.0000E+00
     -1.009  0.2000E+00  0.7252E-01  0.0000E+00
     -0.935  0.3582E+00  0.1544E+00  0.0000E+00
     -0.860  0.1968E+00  0.9347E-01  0.0000E+00
     -0.785  0.1602E+00  0.8525E-01  0.0000E+00
     -0.711  0.1550E+00  0.8332E-01  0.0000E+00
     -0.636  0.1409E+00  0.7520E-01  0.0000E+00
     -0.561  0.1200E+00  0.6227E-01  0.0000E+00