    2    2   20    1
  0.2016476E+02  0.3849279E-09  0.3849279E-09  0.3849279E-09  0.5000000E-15
  1.000000000000000E-004
  CAR 
 unknown system                          
      8     10      8
 
  0.0000000E+00  0.0000000E+00  0.0000000E+00  0.8000000E-02
      1         -6.189581   1.000000
      2          5.616069   1.000000
      3          5.616070   1.000000
      4          5.616070   1.000000
      5          8.164765   0.000000
      6          8.164765   0.000000
      7          8.164765   0.000000
      8          8.729821   0.000000
 
  0.2000000E+00 -0.2539704E-17 -0.1037852E-17  0.6400000E-01
      1         -5.682272   1.000000
      2          2.633835   1.000000
      3          5.048158   1.000000
      4          5.048159   1.000000
      5          7.758601   0.000000
      6          8.952385   0.000000
      7          8.952386   0.000000
      8         11.479357   0.000000
 
  0.4000000E+00 -0.3053410E-17 -0.4101700E-17  0.6400000E-01
      1         -4.351112   1.000000
      2         -0.568914   1.000000
      3          4.508259   1.000000
      4          4.508260   1.000000
      5          7.155805   0.000000
      6          9.029086   0.000000
      7          9.029089   0.000000
      8         13.412843   0.000000
 
  0.2000000E+00  0.2000000E+00 -0.1550835E-16  0.4800000E-01
      1         -5.507441   1.000000
      2          2.979863   1.000000
      3          4.161572   1.000000
      4          4.161573   1.000000
      5          7.086978   0.000000
      6          9.459734   0.000000
      7         10.448646   0.000000
      8         10.448646   0.000000
 
  0.4000000E+00  0.2000000E+00 -0.1021896E-16  0.1920000E+00
      1         -4.390037   1.000000
      2          0.354014   1.000000
      3          3.039530   1.000000
      4          3.661707   1.000000
      5          7.397924   0.000000
      6          9.678211   0.000000
      7         10.467113   0.000000
      8         11.003315   0.000000
 
 -0.4000000E+00  0.2000000E+00  0.2960011E-16  0.1920000E+00
      1         -3.530591   1.000000
      2         -1.002327   1.000000
      3          2.247742   1.000000
      4          3.936171   1.000000
      5          7.668088   0.000000
      6         10.155079   0.000000
      7         10.387770   0.000000
      8         13.100193   0.000000
 
 -0.2000000E+00  0.2000000E+00 -0.5079407E-17  0.9600000E-01
      1         -4.867815   1.000000
      2          1.169942   1.000000
      3          2.683693   1.000000
      4          4.784680   1.000000
      5          8.457197   0.000000
      6          9.572150   0.000000
      7          9.880507   0.000000
      8         11.261097   0.000000
 
  0.4000000E+00  0.4000000E+00 -0.3101670E-16  0.4800000E-01
      1         -3.530059   1.000000
      2         -0.519305   1.000000
      3          2.977420   1.000000
      4          2.977421   1.000000
      5          6.230538   0.000000
      6          6.961763   0.000000
      7         14.004006   0.000000
      8         14.004007   0.000000
 
 -0.4000000E+00  0.4000000E+00 -0.6106821E-17  0.9600000E-01
      1         -2.356500   1.000000
      2         -1.753723   1.000000
      3          1.649274   1.000000
      4          3.093202   1.000000
      5          6.676002   0.000000
      6          8.759302   0.000000
      7         13.598509   0.000000
      8         14.178290   0.000000
 
 -0.4000000E+00  0.4000000E+00  0.2000000E+00  0.1920000E+00
      1         -3.104354   1.000000
      2         -0.896115   1.000000
      3          1.729240   1.000000
      4          2.695245   1.000000
      5          8.992499   0.000000
      6          9.391538   0.000000
      7          9.976490   0.000000
      8         13.307445   0.000000
