Automatically generated mesh
      10
Reciprocal lattice
    0.00000000000000    0.00000000000000    0.00000000000000             1
    0.20000000000000   -0.00000000000000   -0.00000000000000             8
    0.40000000000000   -0.00000000000000   -0.00000000000000             8
    0.20000000000000    0.20000000000000   -0.00000000000000             6
    0.40000000000000    0.20000000000000   -0.00000000000000            24
   -0.40000000000000    0.20000000000000    0.00000000000000            24
   -0.20000000000000    0.20000000000000   -0.00000000000000            12
    0.40000000000000    0.40000000000000   -0.00000000000000             6
   -0.40000000000000    0.40000000000000   -0.00000000000000            12
   -0.40000000000000    0.40000000000000    0.20000000000000            24
Tetrahedra
        24    0.00133333333333
        48         2         3         5         7
        48         5         6         7        10
        24         6         6         7        10
        48         3         5         6         7
        48         6         9        10        10
        48         5         6         9        10
        24         6         6         9        10
        24         5         5         8        10
        24         4         5         5         8
        48         5         8         9        10
        24         4         5         5         7
        48         2         4         5         7
        48         5         6         6        10
        48         3         5         6         6
        24         9        10        10        10
         6        10        10        10        10
        24         6         6        10        10
        12         9         9        10        10
        24         8         9         9        10
        24         5         5         7        10
        24         2         2         4         7
        24         3         3         6         6
        12         8         8         9         9
        24         1         2         2         4
