 vasp.6.3.1 04May22 (build Jun 07 2022 20:23:04) complex                        
  
 executed on             LinuxIFC date 2024.04.20  16:34:42
 running on   32 total cores
 distrk:  each k-point on    8 cores,    4 groups
 distr:  one band on NCORE=   1 cores,    8 groups


--------------------------------------------------------------------------------------------------------


 INCAR:
   ALGO = Normal
   PREC = Normal
   LREAL = False
   EDIFF = 1e-07
   ENCUT = 400.0
   LASPH = True
   NELM = 100
   ISIF = 3
   IBRION = 2
   EDIFFG = -0.005
   NSW = 20
   ISMEAR = -5
   SIGMA = 0.1
   LWAVE = False
   LCHARG = False
   LORBIT = 10
   KPAR = 4

 POTCAR:    PAW_PBE Si 05Jan2001                  
 -----------------------------------------------------------------------------
|                                                                             |
|           W    W    AA    RRRRR   N    N  II  N    N   GGGG   !!!           |
|           W    W   A  A   R    R  NN   N  II  NN   N  G    G  !!!           |
|           W    W  A    A  R    R  N N  N  II  N N  N  G       !!!           |
|           W WW W  AAAAAA  RRRRR   N  N N  II  N  N N  G  GGG   !            |
|           WW  WW  A    A  R   R   N   NN  II  N   NN  G    G                |
|           W    W  A    A  R    R  N    N  II  N    N   GGGG   !!!           |
|                                                                             |
|     For optimal performance we recommend to set                             |
|       NCORE = 2 up to number-of-cores-per-socket                            |
|     NCORE specifies how many cores store one orbital (NPAR=cpu/NCORE).      |
|     This setting can greatly improve the performance of VASP for DFT.       |
|     The default, NCORE=1 might be grossly inefficient on modern             |
|     multi-core architectures or massively parallel machines. Do your        |
|     own testing! More info at https://www.vasp.at/wiki/index.php/NCORE      |
|     Unfortunately you need to use the default for GW and RPA                |
|     calculations (for HF NCORE is supported but not extensively tested      |
|     yet).                                                                   |
|                                                                             |
 -----------------------------------------------------------------------------

 POTCAR:    PAW_PBE Si 05Jan2001                  
   SHA256 =  79d9987ad8750f624c4d6acb2a16d13abf6a777132adc04dc6c8399be72b42bb Si/POTCAR             
   COPYR  = (c) Copyright 05Jan2001 Georg Kresse                                                    
   COPYR  = This file is part of the software VASP. Any use, copying, and all other rights are regul
   COPYR  = If you do not have a valid VASP license, you may not use, copy or distribute this file. 
   VRHFIN =Si: s2p2                                                                                 
   LEXCH  = PE                                                                                      
   EATOM  =   103.0669 eV,    7.5752 Ry                                                             
                                                                                                    
   TITEL  = PAW_PBE Si 05Jan2001                                                                    
   LULTRA =        F    use ultrasoft PP ?                                                          
   IUNSCR =        1    unscreen: 0-lin 1-nonlin 2-no                                               
   RPACOR =    1.500    partial core radius                                                         
   POMASS =   28.085; ZVAL   =    4.000    mass and valenz                                          
   RCORE  =    1.900    outmost cutoff radius                                                       
   RWIGS  =    2.480; RWIGS  =    1.312    wigner-seitz radius (au A)                               
   ENMAX  =  245.345; ENMIN  =  184.009 eV                                                          
   ICORE  =        2    local potential                                                             
   LCOR   =        T    correct aug charges                                                         
   LPAW   =        T    paw PP                                                                      
   EAUG   =  322.069                                                                                
   DEXC   =    0.000                                                                                
   RMAX   =    1.950    core radius for proj-oper                                                   
   RAUG   =    1.300    factor for augmentation sphere                                              
   RDEP   =    1.993    radius for radial grids                                                     
   RDEPT  =    1.837    core radius for aug-charge                                                  
                                                                                                    
   Atomic configuration                                                                             
    6 entries                                                                                       
     n  l   j            E        occ.                                                              
     1  0  0.50     -1785.8828   2.0000                                                             
     2  0  0.50      -139.4969   2.0000                                                             
     2  1  1.50       -95.5546   6.0000                                                             
     3  0  0.50       -10.8127   2.0000                                                             
     3  1  0.50        -4.0811   2.0000                                                             
     3  2  1.50        -4.0817   0.0000                                                             
   Description                                                                                      
     l       E           TYP  RCUT    TYP  RCUT                                                     
     0    -10.8127223     23  1.900                                                                 
     0     -7.6451159     23  1.900                                                                 
     1     -4.0811372     23  1.900                                                                 
     1      2.4879257     23  1.900                                                                 
     2     -4.0817478      7  1.900                                                                 
  local pseudopotential read in
  partial core-charges read in
  partial kinetic energy density read in
  atomic valenz-charges read in
  non local Contribution for L=           0  read in
    real space projection operators read in
  non local Contribution for L=           0  read in
    real space projection operators read in
  non local Contribution for L=           1  read in
    real space projection operators read in
  non local Contribution for L=           1  read in
    real space projection operators read in
    PAW grid and wavefunctions read in
 
   number of l-projection  operators is LMAX  =           4
   number of lm-projection operators is LMMAX =           8
 
  PAW_PBE Si 05Jan2001                  :
 energy of atom  1       EATOM= -103.0669
 kinetic energy error for atom=    0.0012 (will be added to EATOM!!)
 
 
 POSCAR: Si2
  positions in direct lattice
  No initial velocities read in
 exchange correlation table for  LEXCH =        8
   RHO(1)=    0.500       N(1)  =     2000
   RHO(2)=  100.500       N(2)  =     4000

 VTST: version 4.2, (08/11/21)

 CHAIN: initializing optimizer
 
 OPT: Using VASP Conjugate-Gradient optimizer
 CHAIN: Read ICHAIN            0
 
 POSCAR: Si2
  positions in direct lattice
  No initial velocities read in
 


--------------------------------------------------------------------------------------------------------


 ion  position               nearest neighbor table
   1  0.250  0.250  0.250-   2 2.36   2 2.36   2 2.36   2 2.36
   2  0.000  0.000  0.000-   1 2.36   1 2.36   1 2.36   1 2.36
 
  LATTYP: Found a face centered cubic cell.
 ALAT       =     5.4437023730
  
  Lattice vectors:
  
 A1 = (   0.0000000000,   2.7218511865,   2.7218511865)
 A2 = (   2.7218511865,   0.0000000000,   2.7218511865)
 A3 = (   2.7218511865,   2.7218511865,   0.0000000000)


Analysis of symmetry for initial positions (statically):
=====================================================================
 Subroutine PRICEL returns:
 Original cell was already a primitive cell.
 

 Routine SETGRP: Setting up the symmetry group for a 
 face centered cubic supercell.


 Subroutine GETGRP returns: Found 48 space group operations
 (whereof 24 operations were pure point group operations)
 out of a pool of 48 trial point group operations.


The static configuration has the point symmetry T_d .
 The point group associated with its full space group is O_h .


Analysis of symmetry for dynamics (positions and initial velocities):
=====================================================================
 Subroutine PRICEL returns:
 Original cell was already a primitive cell.
 

 Routine SETGRP: Setting up the symmetry group for a 
 face centered cubic supercell.


 Subroutine GETGRP returns: Found 48 space group operations
 (whereof 24 operations were pure point group operations)
 out of a pool of 48 trial point group operations.


The dynamic configuration has the point symmetry T_d .
 The point group associated with its full space group is O_h .


 Subroutine INISYM returns: Found 48 space group operations
 (whereof 24 operations are pure point group operations),
 and found     1 'primitive' translations


----------------------------------------------------------------------------------------

                                     Primitive cell                                     

  volume of cell :      40.3295

  direct lattice vectors                    reciprocal lattice vectors
     0.000000000  2.721851186  2.721851186    -0.183698507  0.183698507  0.183698507
     2.721851186  0.000000000  2.721851186     0.183698507 -0.183698507  0.183698507
     2.721851186  2.721851186  0.000000000     0.183698507  0.183698507 -0.183698507

  length of vectors
     3.849278863  3.849278863  3.849278863     0.318175148  0.318175148  0.318175148

  position of ions in fractional coordinates (direct lattice)
     0.250000000  0.250000000  0.250000000
     0.000000000  0.000000000  0.000000000

  ion indices of the primitive-cell ions
   primitive index   ion index
                 1           1
                 2           2

----------------------------------------------------------------------------------------

 
 
 KPOINTS: Num irrep kpoints: 10                   

Automatic generation of k-mesh.
 Grid dimensions read from file:
 generate k-points for:    5    5    5

 Generating k-lattice:

  Cartesian coordinates                     Fractional coordinates (reciprocal lattice)
    -0.036739701  0.036739701  0.036739701     0.200000000  0.000000000 -0.000000000
     0.036739701 -0.036739701  0.036739701     0.000000000  0.200000000  0.000000000
     0.036739701  0.036739701 -0.036739701    -0.000000000 -0.000000000  0.200000000

  Length of vectors
     0.063635030  0.063635030  0.063635030

  Shift w.r.t. Gamma in fractional coordinates (k-lattice)
     0.000000000  0.000000000  0.000000000

 TETIRR: Found     24 inequivalent tetrahedra from      750
 
 Subroutine IBZKPT returns following result:
 ===========================================
 
 Found     10 irreducible k-points:
 
 Following reciprocal coordinates:
            Coordinates               Weight
  0.000000  0.000000  0.000000      1.000000
  0.200000 -0.000000 -0.000000      8.000000
  0.400000 -0.000000 -0.000000      8.000000
  0.200000  0.200000 -0.000000      6.000000
  0.400000  0.200000 -0.000000     24.000000
 -0.400000  0.200000  0.000000     24.000000
 -0.200000  0.200000 -0.000000     12.000000
  0.400000  0.400000 -0.000000      6.000000
 -0.400000  0.400000 -0.000000     12.000000
 -0.400000  0.400000  0.200000     24.000000
 
 Following cartesian coordinates:
            Coordinates               Weight
  0.000000  0.000000  0.000000      1.000000
 -0.036740  0.036740  0.036740      8.000000
 -0.073479  0.073479  0.073479      8.000000
 -0.000000 -0.000000  0.073479      6.000000
 -0.036740  0.036740  0.110219     24.000000
  0.110219 -0.110219 -0.036740     24.000000
  0.073479 -0.073479  0.000000     12.000000
 -0.000000 -0.000000  0.146959      6.000000
  0.146959 -0.146959  0.000000     12.000000
  0.183699 -0.110219 -0.036740     24.000000
 


--------------------------------------------------------------------------------------------------------




 Dimension of arrays:
   k-points           NKPTS =     10   k-points in BZ     NKDIM =     10   number of bands    NBANDS=      8
   number of dos      NEDOS =    301   number of ions     NIONS =      2
   non local maximal  LDIM  =      4   non local SUM 2l+1 LMDIM =      8
   total plane-waves  NPLWV =   8000
   max r-space proj   IRMAX =      1   max aug-charges    IRDMAX=   6831
   dimension x,y,z NGX =    20 NGY =   20 NGZ =   20
   dimension x,y,z NGXF=    40 NGYF=   40 NGZF=   40
   support grid    NGXF=    40 NGYF=   40 NGZF=   40
   ions per type =               2
   NGX,Y,Z   is equivalent  to a cutoff of   8.64,  8.64,  8.64 a.u.
   NGXF,Y,Z  is equivalent  to a cutoff of  17.28, 17.28, 17.28 a.u.

 SYSTEM =  unknown system                          
 POSCAR =  Si2                                     

 Startparameter for this run:
   NWRITE =      2    write-flag & timer
   PREC   = normal    normal or accurate (medium, high low for compatibility)
   ISTART =      0    job   : 0-new  1-cont  2-samecut
   ICHARG =      2    charge: 1-file 2-atom 10-const
   ISPIN  =      1    spin polarized calculation?
   LNONCOLLINEAR =      F non collinear calculations
   LSORBIT =      F    spin-orbit coupling
   INIWAV =      1    electr: 0-lowe 1-rand  2-diag
   LASPH  =      T    aspherical Exc in radial PAW
 Electronic Relaxation 1
   ENCUT  =  400.0 eV  29.40 Ry    5.42 a.u.   6.28  6.28  6.28*2*pi/ulx,y,z
   ENINI  =  400.0     initial cutoff
   ENAUG  =  322.1 eV  augmentation charge cutoff
   NELM   =    100;   NELMIN=  2; NELMDL= -5     # of ELM steps 
   EDIFF  = 0.1E-06   stopping-criterion for ELM
   LREAL  =      F    real-space projection
   NLSPLINE    = F    spline interpolate recip. space projectors
   LCOMPAT=      F    compatible to vasp.4.4
   GGA_COMPAT  = T    GGA compatible to vasp.4.4-vasp.4.6
   LMAXPAW     = -100 max onsite density
   LMAXMIX     =    2 max onsite mixed and CHGCAR
   VOSKOWN=      0    Vosko Wilk Nusair interpolation
   ROPT   =    0.00000
 Ionic relaxation
   EDIFFG = -.5E-02   stopping-criterion for IOM
   NSW    =     20    number of steps for IOM
   NBLOCK =      1;   KBLOCK =     20    inner block; outer block 
   IBRION =      2    ionic relax: 0-MD 1-quasi-New 2-CG
   NFREE  =      1    steps in history (QN), initial steepest desc. (CG)
   ISIF   =      3    stress and relaxation
   IWAVPR =     11    prediction:  0-non 1-charg 2-wave 3-comb
   ISYM   =      2    0-nonsym 1-usesym 2-fastsym
   LCORR  =      T    Harris-Foulkes like correction to forces

   POTIM  = 0.5000    time-step for ionic-motion
   TEIN   =    0.0    initial temperature
   TEBEG  =    0.0;   TEEND  =   0.0 temperature during run
   SMASS  =  -3.00    Nose mass-parameter (am)
   estimated Nose-frequenzy (Omega)   =  0.10E-29 period in steps = 0.13E+47 mass=  -0.339E-27a.u.
   SCALEE = 1.0000    scale energy and forces
   NPACO  =    256;   APACO  = 10.0  distance and # of slots for P.C.
   PSTRESS=    0.0 pullay stress

  Mass of Ions in am
   POMASS =  28.09
  Ionic Valenz
   ZVAL   =   4.00
  Atomic Wigner-Seitz radii
   RWIGS  =  -1.00
  virtual crystal weights 
   VCA    =   1.00
   NELECT =       8.0000    total number of electrons
   NUPDOWN=      -1.0000    fix difference up-down

 DOS related values:
   EMIN   =  10.00;   EMAX   =-10.00  energy-range for DOS
   EFERMI =   0.00
   ISMEAR =    -5;   SIGMA  =   0.10  broadening in eV -4-tet -1-fermi 0-gaus

 Electronic relaxation 2 (details)
   IALGO  =     38    algorithm
   LDIAG  =      T    sub-space diagonalisation (order eigenvalues)
   LSUBROT=      F    optimize rotation matrix (better conditioning)
   TURBO    =      0    0=normal 1=particle mesh
   IRESTART =      0    0=no restart 2=restart with 2 vectors
   NREBOOT  =      0    no. of reboots
   NMIN     =      0    reboot dimension
   EREF     =   0.00    reference energy to select bands
   IMIX   =      4    mixing-type and parameters
     AMIX     =   0.40;   BMIX     =  1.00
     AMIX_MAG =   1.60;   BMIX_MAG =  1.00
     AMIN     =   0.10
     WC   =   100.;   INIMIX=   1;  MIXPRE=   1;  MAXMIX= -45

 Intra band minimization:
   WEIMIN = 0.0010     energy-eigenvalue tresh-hold
   EBREAK =  0.31E-08  absolut break condition
   DEPER  =   0.30     relativ break condition  

   TIME   =   0.40     timestep for ELM

  volume/ion in A,a.u.               =      20.16       136.08
  Fermi-wavevector in a.u.,A,eV,Ry     =   0.954766  1.804247 12.402783  0.911579
  Thomas-Fermi vector in A             =   2.083543
 
 Write flags
   LWAVE        =      F    write WAVECAR
   LDOWNSAMPLE  =      F    k-point downsampling of WAVECAR
   LCHARG       =      F    write CHGCAR
   LVTOT        =      F    write LOCPOT, total local potential
   LVHAR        =      F    write LOCPOT, Hartree potential only
   LELF         =      F    write electronic localiz. function (ELF)
   LORBIT       =     10    0 simple, 1 ext, 2 COOP (PROOUT), +10 PAW based schemes


 Dipole corrections
   LMONO  =      F    monopole corrections only (constant potential shift)
   LDIPOL =      F    correct potential (dipole corrections)
   IDIPOL =      0    1-x, 2-y, 3-z, 4-all directions 
   EPSILON=  1.0000000 bulk dielectric constant

 Exchange correlation treatment:
   GGA     =    --    GGA type
   LEXCH   =     8    internal setting for exchange type
   LIBXC   =     F    Libxc                    
   VOSKOWN =     0    Vosko Wilk Nusair interpolation
   LHFCALC =     F    Hartree Fock is set to
   LHFONE  =     F    Hartree Fock one center treatment
   AEXX    =    0.0000 exact exchange contribution

 Linear response parameters
   LEPSILON=     F    determine dielectric tensor
   LRPA    =     F    only Hartree local field effects (RPA)
   LNABLA  =     F    use nabla operator in PAW spheres
   LVEL    =     F    velocity operator in full k-point grid
   CSHIFT  =0.1000    complex shift for real part using Kramers Kronig
   OMEGAMAX=  -1.0    maximum frequency
   DEG_THRESHOLD= 0.2000000E-02 threshold for treating states as degnerate
   RTIME   =   -0.100 relaxation time in fs
  (WPLASMAI=    0.000 imaginary part of plasma frequency in eV, 0.658/RTIME)
   DFIELD  = 0.0000000 0.0000000 0.0000000 field for delta impulse in time
 
  Optional k-point grid parameters
   LKPOINTS_OPT  =     F    use optional k-point grid
   KPOINTS_OPT_MODE=     1    mode for optional k-point grid
 
 Orbital magnetization related:
   ORBITALMAG=     F  switch on orbital magnetization
   LCHIMAG   =     F  perturbation theory with respect to B field
   DQ        =  0.001000  dq finite difference perturbation B field
   LLRAUG    =     F  two centre corrections for induced B field



--------------------------------------------------------------------------------------------------------


 conjugate gradient relaxation of ions
 charge density and potential will be updated during run
 non-spin polarized calculation
 Variant of blocked Davidson
 Davidson routine will perform the subspace rotation
 perform sub-space diagonalisation
    after iterative eigenvector-optimisation
 modified Broyden-mixing scheme, WC =      100.0
 initial mixing is a Kerker type mixing with AMIX =  0.4000 and BMIX =      1.0000
 Hartree-type preconditioning will be used
 using additional bands            4
 reciprocal scheme for non local part
 use partial core corrections
 calculate Harris-corrections to forces 
   (improved forces if not selfconsistent)
 use gradient corrections 
 use of overlap-Matrix (Vanderbilt PP)
 Fermi weights with tetrahedron method with Bloechl corrections


--------------------------------------------------------------------------------------------------------


  energy-cutoff  :      400.00
  volume of cell :       40.33
      direct lattice vectors                 reciprocal lattice vectors
     0.000000000  2.721851186  2.721851186    -0.183698507  0.183698507  0.183698507
     2.721851186  0.000000000  2.721851186     0.183698507 -0.183698507  0.183698507
     2.721851186  2.721851186  0.000000000     0.183698507  0.183698507 -0.183698507

  length of vectors
     3.849278863  3.849278863  3.849278863     0.318175148  0.318175148  0.318175148


 
 k-points in units of 2pi/SCALE and weight: Num irrep kpoints: 10                   
   0.00000000  0.00000000  0.00000000       0.008
  -0.03673970  0.03673970  0.03673970       0.064
  -0.07347940  0.07347940  0.07347940       0.064
  -0.00000000 -0.00000000  0.07347940       0.048
  -0.03673970  0.03673970  0.11021910       0.192
   0.11021910 -0.11021910 -0.03673970       0.192
   0.07347940 -0.07347940  0.00000000       0.096
  -0.00000000 -0.00000000  0.14695881       0.048
   0.14695881 -0.14695881  0.00000000       0.096
   0.18369851 -0.11021910 -0.03673970       0.192
 
 k-points in reciprocal lattice and weights: Num irrep kpoints: 10                   
   0.00000000  0.00000000  0.00000000       0.008
   0.20000000 -0.00000000 -0.00000000       0.064
   0.40000000 -0.00000000 -0.00000000       0.064
   0.20000000  0.20000000 -0.00000000       0.048
   0.40000000  0.20000000 -0.00000000       0.192
  -0.40000000  0.20000000  0.00000000       0.192
  -0.20000000  0.20000000 -0.00000000       0.096
   0.40000000  0.40000000 -0.00000000       0.048
  -0.40000000  0.40000000 -0.00000000       0.096
  -0.40000000  0.40000000  0.20000000       0.192
 
 position of ions in fractional coordinates (direct lattice) 
   0.25000000  0.25000000  0.25000000
   0.00000000  0.00000000  0.00000000
 
 position of ions in cartesian coordinates  (Angst):
   1.36092559  1.36092559  1.36092559
   0.00000000  0.00000000  0.00000000
 


--------------------------------------------------------------------------------------------------------


 k-point   1 :   0.0000 0.0000 0.0000  plane waves:     725
 k-point   2 :   0.2000-0.0000-0.0000  plane waves:     733
 k-point   3 :   0.4000-0.0000-0.0000  plane waves:     739
 k-point   4 :   0.2000 0.2000-0.0000  plane waves:     725
 k-point   5 :   0.4000 0.2000-0.0000  plane waves:     725
 k-point   6 :  -0.4000 0.2000 0.0000  plane waves:     729
 k-point   7 :  -0.2000 0.2000-0.0000  plane waves:     734
 k-point   8 :   0.4000 0.4000-0.0000  plane waves:     729
 k-point   9 :  -0.4000 0.4000-0.0000  plane waves:     728
 k-point  10 :  -0.4000 0.4000 0.2000  plane waves:     737

 maximum and minimum number of plane-waves per node :       739      725

 maximum number of plane-waves:       739
 maximum index in each direction: 
   IXMAX=    6   IYMAX=    6   IZMAX=    6
   IXMIN=   -6   IYMIN=   -6   IZMIN=   -6


 serial   3D FFT for wavefunctions
 parallel 3D FFT for charge:
    minimum data exchange during FFTs selected (reduces bandwidth)


 total amount of memory used by VASP MPI-rank0    31663. kBytes
=======================================================================

   base      :      30000. kBytes
   nonl-proj :        499. kBytes
   fftplans  :        314. kBytes
   grid      :        723. kBytes
   one-center:          6. kBytes
   wavefun   :        121. kBytes
 
     INWAV:  cpu time      0.0000: real time      0.0001
 Broyden mixing: mesh for mixing (old mesh)
   NGX = 13   NGY = 13   NGZ = 13
  (NGX  = 40   NGY  = 40   NGZ  = 40)
  gives a total of   2197 points

 initial charge density was supplied:
 charge density of overlapping atoms calculated
 number of electron       8.0000000 magnetization 
 keeping initial charge density in first step


--------------------------------------------------------------------------------------------------------


 Maximum index for augmentation-charges          829 (set IRDMAX)


--------------------------------------------------------------------------------------------------------


 First call to EWALD:  gamma=   0.517
 Maximum number of real-space cells 3x 3x 3
 Maximum number of reciprocal cells 3x 3x 3

    FEWALD:  cpu time      0.0010: real time      0.0010


--------------------------------------- Iteration      1(   1)  ---------------------------------------


    POTLOK:  cpu time      0.0038: real time      0.0040
    SETDIJ:  cpu time      0.0360: real time      0.0362
     EDDAV:  cpu time      0.0048: real time      0.0049
 BZINTS: Fermi energy:    9.008833;    8.000000 electrons
         Band energy: 0.161115E+02;  BLOECHL correction:   -0.206418
       DOS:  cpu time      0.0004: real time      0.0004
    --------------------------------------------
      LOOP:  cpu time      0.0451: real time      0.0455

 eigenvalue-minimisations  :   160
 total energy-change (2. order) : 0.3033817E+01  (-0.2920531E+03)
 number of electron       8.0000000 magnetization 
 augmentation part        8.0000000 magnetization 

 Free energy of the ion-electron system (eV)
  ---------------------------------------------------
  alpha Z        PSCENC =         3.33880741
  Ewald energy   TEWEN  =      -227.98820643
  -Hartree energ DENC   =       -11.11484531
  -exchange      EXHF   =         0.00000000
  -V(xc)+E(xc)   XCENC  =       -18.63153109
  PAW double counting   =       176.24759923     -141.06103558
  entropy T*S    EENTRO =         0.00000000
  eigenvalues    EBANDS =        16.11153669
  atomic energy  EATOM  =       206.13149246
  Solvation  Ediel_sol  =         0.00000000
  ---------------------------------------------------
  free energy    TOTEN  =         3.03381738 eV

  energy without entropy =        3.03381738  energy(sigma->0) =        3.03381738


--------------------------------------------------------------------------------------------------------




--------------------------------------- Iteration      1(   2)  ---------------------------------------


     EDDAV:  cpu time      0.0053: real time      0.0058
 BZINTS: Fermi energy:    5.275564;    8.000000 electrons
         Band energy: 0.230658E+01;  BLOECHL correction:   -0.000000
       DOS:  cpu time      0.0003: real time      0.0003
    --------------------------------------------
      LOOP:  cpu time      0.0056: real time      0.0061

 eigenvalue-minimisations  :   240
 total energy-change (2. order) :-0.1380496E+02  (-0.1368324E+02)
 number of electron       8.0000000 magnetization 
 augmentation part        8.0000000 magnetization 

 Free energy of the ion-electron system (eV)
  ---------------------------------------------------
  alpha Z        PSCENC =         3.33880741
  Ewald energy   TEWEN  =      -227.98820643
  -Hartree energ DENC   =       -11.11484531
  -exchange      EXHF   =         0.00000000
  -V(xc)+E(xc)   XCENC  =       -18.63153109
  PAW double counting   =       176.24759923     -141.06103558
  entropy T*S    EENTRO =         0.00000000
  eigenvalues    EBANDS =         2.30657732
  atomic energy  EATOM  =       206.13149246
  Solvation  Ediel_sol  =         0.00000000
  ---------------------------------------------------
  free energy    TOTEN  =       -10.77114199 eV

  energy without entropy =      -10.77114199  energy(sigma->0) =      -10.77114199


--------------------------------------------------------------------------------------------------------




--------------------------------------- Iteration      1(   3)  ---------------------------------------


     EDDAV:  cpu time      0.0044: real time      0.0046
 BZINTS: Fermi energy:    5.199613;    8.000000 electrons
         Band energy: 0.210971E+01;  BLOECHL correction:    0.000000
       DOS:  cpu time      0.0003: real time      0.0003
    --------------------------------------------
      LOOP:  cpu time      0.0047: real time      0.0048

 eigenvalue-minimisations  :   200
 total energy-change (2. order) :-0.1968723E+00  (-0.1968723E+00)
 number of electron       8.0000000 magnetization 
 augmentation part        8.0000000 magnetization 

 Free energy of the ion-electron system (eV)
  ---------------------------------------------------
  alpha Z        PSCENC =         3.33880741
  Ewald energy   TEWEN  =      -227.98820643
  -Hartree energ DENC   =       -11.11484531
  -exchange      EXHF   =         0.00000000
  -V(xc)+E(xc)   XCENC  =       -18.63153109
  PAW double counting   =       176.24759923     -141.06103558
  entropy T*S    EENTRO =         0.00000000
  eigenvalues    EBANDS =         2.10970503
  atomic energy  EATOM  =       206.13149246
  Solvation  Ediel_sol  =         0.00000000
  ---------------------------------------------------
  free energy    TOTEN  =       -10.96801428 eV

  energy without entropy =      -10.96801428  energy(sigma->0) =      -10.96801428


--------------------------------------------------------------------------------------------------------




--------------------------------------- Iteration      1(   4)  ---------------------------------------


     EDDAV:  cpu time      0.0056: real time      0.0057
 BZINTS: Fermi energy:    5.198149;    8.000000 electrons
         Band energy: 0.210913E+01;  BLOECHL correction:   -0.000000
       DOS:  cpu time      0.0003: real time      0.0003
    --------------------------------------------
      LOOP:  cpu time      0.0058: real time      0.0060

 eigenvalue-minimisations  :   264
 total energy-change (2. order) :-0.5770784E-03  (-0.5770685E-03)
 number of electron       8.0000000 magnetization 
 augmentation part        8.0000000 magnetization 

 Free energy of the ion-electron system (eV)
  ---------------------------------------------------
  alpha Z        PSCENC =         3.33880741
  Ewald energy   TEWEN  =      -227.98820643
  -Hartree energ DENC   =       -11.11484531
  -exchange      EXHF   =         0.00000000
  -V(xc)+E(xc)   XCENC  =       -18.63153109
  PAW double counting   =       176.24759923     -141.06103558
  entropy T*S    EENTRO =         0.00000000
  eigenvalues    EBANDS =         2.10912795
  atomic energy  EATOM  =       206.13149246
  Solvation  Ediel_sol  =         0.00000000
  ---------------------------------------------------
  free energy    TOTEN  =       -10.96859136 eV

  energy without entropy =      -10.96859136  energy(sigma->0) =      -10.96859136


--------------------------------------------------------------------------------------------------------




--------------------------------------- Iteration      1(   5)  ---------------------------------------


     EDDAV:  cpu time      0.0043: real time      0.0044
 BZINTS: Fermi energy:    5.198604;    8.000000 electrons
         Band energy: 0.210913E+01;  BLOECHL correction:    0.000000
       DOS:  cpu time      0.0003: real time      0.0003
    CHARGE:  cpu time      0.0019: real time      0.0019
    MIXING:  cpu time      0.0004: real time      0.0004
    --------------------------------------------
      LOOP:  cpu time      0.0069: real time      0.0070

 eigenvalue-minimisations  :   200
 total energy-change (2. order) :-0.9532428E-06  (-0.9631517E-06)
 number of electron       8.0000003 magnetization 
 augmentation part       -0.4686679 magnetization 

 Broyden mixing:
  rms(total) = 0.48680E+00    rms(broyden)= 0.48680E+00
  rms(prec ) = 0.96314E+00
  weight for this iteration     100.00

 Free energy of the ion-electron system (eV)
  ---------------------------------------------------
  alpha Z        PSCENC =         3.33880741
  Ewald energy   TEWEN  =      -227.98820643
  -Hartree energ DENC   =       -11.11484531
  -exchange      EXHF   =         0.00000000
  -V(xc)+E(xc)   XCENC  =       -18.63153109
  PAW double counting   =       176.24759923     -141.06103558
  entropy T*S    EENTRO =         0.00000000
  eigenvalues    EBANDS =         2.10912700
  atomic energy  EATOM  =       206.13149246
  Solvation  Ediel_sol  =         0.00000000
  ---------------------------------------------------
  free energy    TOTEN  =       -10.96859231 eV

  energy without entropy =      -10.96859231  energy(sigma->0) =      -10.96859231


--------------------------------------------------------------------------------------------------------




--------------------------------------- Iteration      1(   6)  ---------------------------------------


    POTLOK:  cpu time      0.0031: real time      0.0032
    SETDIJ:  cpu time      0.0357: real time      0.0359
     EDDAV:  cpu time      0.0038: real time      0.0039
 BZINTS: Fermi energy:    5.430916;    8.000000 electrons
         Band energy: 0.363539E+01;  BLOECHL correction:   -0.000000
       DOS:  cpu time      0.0003: real time      0.0003
    CHARGE:  cpu time      0.0017: real time      0.0017
    MIXING:  cpu time      0.0003: real time      0.0003
    --------------------------------------------
      LOOP:  cpu time      0.0449: real time      0.0453

 eigenvalue-minimisations  :   192
 total energy-change (2. order) : 0.1280577E+00  (-0.8315219E-02)
 number of electron       8.0000003 magnetization 
 augmentation part       -0.4626256 magnetization 

 Broyden mixing:
  rms(total) = 0.29835E+00    rms(broyden)= 0.29835E+00
  rms(prec ) = 0.57381E+00
  weight for this iteration     100.00

 eigenvalues of (default mixing * dielectric matrix)
  average eigenvalue GAMMA=   2.5728
  2.5728

 Free energy of the ion-electron system (eV)
  ---------------------------------------------------
  alpha Z        PSCENC =         3.33880741
  Ewald energy   TEWEN  =      -227.98820643
  -Hartree energ DENC   =       -12.64325867
  -exchange      EXHF   =         0.00000000
  -V(xc)+E(xc)   XCENC  =       -18.39168732
  PAW double counting   =       377.09599142     -342.01906383
  entropy T*S    EENTRO =         0.00000000
  eigenvalues    EBANDS =         3.63539039
  atomic energy  EATOM  =       206.13149246
  Solvation  Ediel_sol  =         0.00000000
  ---------------------------------------------------
  free energy    TOTEN  =       -10.84053457 eV

  energy without entropy =      -10.84053457  energy(sigma->0) =      -10.84053457


--------------------------------------------------------------------------------------------------------




--------------------------------------- Iteration      1(   7)  ---------------------------------------


    POTLOK:  cpu time      0.0032: real time      0.0034
    SETDIJ:  cpu time      0.0358: real time      0.0359
     EDDAV:  cpu time      0.0034: real time      0.0034
 BZINTS: Fermi energy:    5.783011;    8.000000 electrons
         Band energy: 0.595132E+01;  BLOECHL correction:   -0.000000
       DOS:  cpu time      0.0003: real time      0.0003
    CHARGE:  cpu time      0.0017: real time      0.0017
    MIXING:  cpu time      0.0003: real time      0.0003
    --------------------------------------------
      LOOP:  cpu time      0.0447: real time      0.0450

 eigenvalue-minimisations  :   184
 total energy-change (2. order) : 0.5861861E-01  (-0.1594997E-01)
 number of electron       8.0000003 magnetization 
 augmentation part       -0.4551860 magnetization 

 Broyden mixing:
  rms(total) = 0.18979E-01    rms(broyden)= 0.18979E-01
  rms(prec ) = 0.42309E-01
  weight for this iteration     100.00

 eigenvalues of (default mixing * dielectric matrix)
  average eigenvalue GAMMA=   2.0781
  1.7818  2.3745

 Free energy of the ion-electron system (eV)
  ---------------------------------------------------
  alpha Z        PSCENC =         3.33880741
  Ewald energy   TEWEN  =      -227.98820643
  -Hartree energ DENC   =       -15.16186714
  -exchange      EXHF   =         0.00000000
  -V(xc)+E(xc)   XCENC  =       -17.98815777
  PAW double counting   =       859.30892698     -824.37423641
  entropy T*S    EENTRO =         0.00000000
  eigenvalues    EBANDS =         5.95132494
  atomic energy  EATOM  =       206.13149246
  Solvation  Ediel_sol  =         0.00000000
  ---------------------------------------------------
  free energy    TOTEN  =       -10.78191596 eV

  energy without entropy =      -10.78191596  energy(sigma->0) =      -10.78191596


--------------------------------------------------------------------------------------------------------




--------------------------------------- Iteration      1(   8)  ---------------------------------------


    POTLOK:  cpu time      0.0032: real time      0.0034
    SETDIJ:  cpu time      0.0358: real time      0.0359
     EDDAV:  cpu time      0.0045: real time      0.0045
 BZINTS: Fermi energy:    5.766537;    8.000000 electrons
         Band energy: 0.585404E+01;  BLOECHL correction:   -0.000000
       DOS:  cpu time      0.0003: real time      0.0003
    CHARGE:  cpu time      0.0022: real time      0.0022
    MIXING:  cpu time      0.0004: real time      0.0004
    --------------------------------------------
      LOOP:  cpu time      0.0462: real time      0.0466

 eigenvalue-minimisations  :   176
 total energy-change (2. order) :-0.1277454E-02  (-0.4206722E-03)
 number of electron       8.0000003 magnetization 
 augmentation part       -0.4562011 magnetization 

 Broyden mixing:
  rms(total) = 0.75222E-02    rms(broyden)= 0.75222E-02
  rms(prec ) = 0.13460E-01
  weight for this iteration     100.00

 eigenvalues of (default mixing * dielectric matrix)
  average eigenvalue GAMMA=   2.2735
  2.8803  1.9701  1.9701

 Free energy of the ion-electron system (eV)
  ---------------------------------------------------
  alpha Z        PSCENC =         3.33880741
  Ewald energy   TEWEN  =      -227.98820643
  -Hartree energ DENC   =       -15.09387957
  -exchange      EXHF   =         0.00000000
  -V(xc)+E(xc)   XCENC  =       -17.98775439
  PAW double counting   =       869.14798810     -834.18568150
  entropy T*S    EENTRO =         0.00000000
  eigenvalues    EBANDS =         5.85404050
  atomic energy  EATOM  =       206.13149246
  Solvation  Ediel_sol  =         0.00000000
  ---------------------------------------------------
  free energy    TOTEN  =       -10.78319342 eV

  energy without entropy =      -10.78319342  energy(sigma->0) =      -10.78319342


--------------------------------------------------------------------------------------------------------




--------------------------------------- Iteration      1(   9)  ---------------------------------------


    POTLOK:  cpu time      0.0032: real time      0.0033
    SETDIJ:  cpu time      0.0358: real time      0.0360
     EDDAV:  cpu time      0.0061: real time      0.0061
 BZINTS: Fermi energy:    5.770978;    8.000000 electrons
         Band energy: 0.588565E+01;  BLOECHL correction:   -0.000000
       DOS:  cpu time      0.0003: real time      0.0003
    CHARGE:  cpu time      0.0016: real time      0.0016
    MIXING:  cpu time      0.0003: real time      0.0003
    --------------------------------------------
      LOOP:  cpu time      0.0473: real time      0.0476

 eigenvalue-minimisations  :   224
 total energy-change (2. order) :-0.2239196E-03  (-0.2184205E-04)
 number of electron       8.0000003 magnetization 
 augmentation part       -0.4563278 magnetization 

 Broyden mixing:
  rms(total) = 0.57189E-02    rms(broyden)= 0.57189E-02
  rms(prec ) = 0.66519E-02
  weight for this iteration     100.00

 eigenvalues of (default mixing * dielectric matrix)
  average eigenvalue GAMMA=   2.1230
  0.9277  2.7659  2.3992  2.3992

 Free energy of the ion-electron system (eV)
  ---------------------------------------------------
  alpha Z        PSCENC =         3.33880741
  Ewald energy   TEWEN  =      -227.98820643
  -Hartree energ DENC   =       -15.13655456
  -exchange      EXHF   =         0.00000000
  -V(xc)+E(xc)   XCENC  =       -17.97951926
  PAW double counting   =       870.58746955     -835.62255959
  entropy T*S    EENTRO =         0.00000000
  eigenvalues    EBANDS =         5.88565309
  atomic energy  EATOM  =       206.13149246
  Solvation  Ediel_sol  =         0.00000000
  ---------------------------------------------------
  free energy    TOTEN  =       -10.78341733 eV

  energy without entropy =      -10.78341733  energy(sigma->0) =      -10.78341733


--------------------------------------------------------------------------------------------------------




--------------------------------------- Iteration      1(  10)  ---------------------------------------


    POTLOK:  cpu time      0.0032: real time      0.0034
    SETDIJ:  cpu time      0.0358: real time      0.0359
     EDDAV:  cpu time      0.0045: real time      0.0045
 BZINTS: Fermi energy:    5.772141;    8.000000 electrons
         Band energy: 0.589463E+01;  BLOECHL correction:   -0.000000
       DOS:  cpu time      0.0003: real time      0.0003
    CHARGE:  cpu time      0.0016: real time      0.0016
    MIXING:  cpu time      0.0004: real time      0.0004
    --------------------------------------------
      LOOP:  cpu time      0.0457: real time      0.0460

 eigenvalue-minimisations  :   200
 total energy-change (2. order) :-0.2999683E-04  (-0.3671027E-05)
 number of electron       8.0000003 magnetization 
 augmentation part       -0.4563042 magnetization 

 Broyden mixing:
  rms(total) = 0.10008E-02    rms(broyden)= 0.10008E-02
  rms(prec ) = 0.10778E-02
  weight for this iteration     100.00

 eigenvalues of (default mixing * dielectric matrix)
  average eigenvalue GAMMA=   1.9025
  2.9069  2.4370  2.1103  1.0292  1.0292

 Free energy of the ion-electron system (eV)
  ---------------------------------------------------
  alpha Z        PSCENC =         3.33880741
  Ewald energy   TEWEN  =      -227.98820643
  -Hartree energ DENC   =       -15.14616088
  -exchange      EXHF   =         0.00000000
  -V(xc)+E(xc)   XCENC  =       -17.97896232
  PAW double counting   =       859.13136575     -824.16641810
  entropy T*S    EENTRO =         0.00000000
  eigenvalues    EBANDS =         5.89463478
  atomic energy  EATOM  =       206.13149246
  Solvation  Ediel_sol  =         0.00000000
  ---------------------------------------------------
  free energy    TOTEN  =       -10.78344733 eV

  energy without entropy =      -10.78344733  energy(sigma->0) =      -10.78344733


--------------------------------------------------------------------------------------------------------




--------------------------------------- Iteration      1(  11)  ---------------------------------------


    POTLOK:  cpu time      0.0032: real time      0.0033
    SETDIJ:  cpu time      0.0359: real time      0.0360
     EDDAV:  cpu time      0.0054: real time      0.0055
 BZINTS: Fermi energy:    5.771839;    8.000000 electrons
         Band energy: 0.589278E+01;  BLOECHL correction:   -0.000000
       DOS:  cpu time      0.0003: real time      0.0003
    CHARGE:  cpu time      0.0016: real time      0.0016
    MIXING:  cpu time      0.0004: real time      0.0004
    --------------------------------------------
      LOOP:  cpu time      0.0467: real time      0.0470

 eigenvalue-minimisations  :   240
 total energy-change (2. order) : 0.3637796E-06  (-0.5294585E-07)
 number of electron       8.0000003 magnetization 
 augmentation part       -0.4563213 magnetization 

 Broyden mixing:
  rms(total) = 0.21922E-03    rms(broyden)= 0.21922E-03
  rms(prec ) = 0.42933E-03
  weight for this iteration     100.00

 eigenvalues of (default mixing * dielectric matrix)
  average eigenvalue GAMMA=   2.1481
  3.1337  3.1337  2.4307  2.2893  0.9827  0.9186

 Free energy of the ion-electron system (eV)
  ---------------------------------------------------
  alpha Z        PSCENC =         3.33880741
  Ewald energy   TEWEN  =      -227.98820643
  -Hartree energ DENC   =       -15.14463283
  -exchange      EXHF   =         0.00000000
  -V(xc)+E(xc)   XCENC  =       -17.97905918
  PAW double counting   =       860.45374760     -825.48837766
  entropy T*S    EENTRO =         0.00000000
  eigenvalues    EBANDS =         5.89278166
  atomic energy  EATOM  =       206.13149246
  Solvation  Ediel_sol  =         0.00000000
  ---------------------------------------------------
  free energy    TOTEN  =       -10.78344697 eV

  energy without entropy =      -10.78344697  energy(sigma->0) =      -10.78344697


--------------------------------------------------------------------------------------------------------




--------------------------------------- Iteration      1(  12)  ---------------------------------------


    POTLOK:  cpu time      0.0032: real time      0.0033
    SETDIJ:  cpu time      0.0358: real time      0.0359
     EDDAV:  cpu time      0.0045: real time      0.0046
 BZINTS: Fermi energy:    5.772066;    8.000000 electrons
         Band energy: 0.589428E+01;  BLOECHL correction:   -0.000000
       DOS:  cpu time      0.0003: real time      0.0003
    CHARGE:  cpu time      0.0016: real time      0.0016
    MIXING:  cpu time      0.0004: real time      0.0004
    --------------------------------------------
      LOOP:  cpu time      0.0458: real time      0.0461

 eigenvalue-minimisations  :   192
 total energy-change (2. order) :-0.3296151E-06  (-0.6021418E-07)
 number of electron       8.0000003 magnetization 
 augmentation part       -0.4563110 magnetization 

 Broyden mixing:
  rms(total) = 0.87901E-04    rms(broyden)= 0.87901E-04
  rms(prec ) = 0.93786E-04
  weight for this iteration     100.00

 eigenvalues of (default mixing * dielectric matrix)
  average eigenvalue GAMMA=   1.9159
  3.2456  2.6960  2.4421  2.2668  0.9863  0.9863  0.7878

 Free energy of the ion-electron system (eV)
  ---------------------------------------------------
  alpha Z        PSCENC =         3.33880741
  Ewald energy   TEWEN  =      -227.98820643
  -Hartree energ DENC   =       -15.14614216
  -exchange      EXHF   =         0.00000000
  -V(xc)+E(xc)   XCENC  =       -17.97907114
  PAW double counting   =       860.47069046     -825.50529909
  entropy T*S    EENTRO =         0.00000000
  eigenvalues    EBANDS =         5.89428121
  atomic energy  EATOM  =       206.13149246
  Solvation  Ediel_sol  =         0.00000000
  ---------------------------------------------------
  free energy    TOTEN  =       -10.78344730 eV

  energy without entropy =      -10.78344730  energy(sigma->0) =      -10.78344730


--------------------------------------------------------------------------------------------------------




--------------------------------------- Iteration      1(  13)  ---------------------------------------


    POTLOK:  cpu time      0.0032: real time      0.0033
    SETDIJ:  cpu time      0.0358: real time      0.0359
     EDDAV:  cpu time      0.0052: real time      0.0052
 BZINTS: Fermi energy:    5.772029;    8.000000 electrons
         Band energy: 0.589425E+01;  BLOECHL correction:   -0.000000
       DOS:  cpu time      0.0003: real time      0.0003
    --------------------------------------------
      LOOP:  cpu time      0.0444: real time      0.0447

 eigenvalue-minimisations  :   160
 total energy-change (2. order) :-0.5780919E-08  (-0.2545601E-09)
 number of electron       8.0000003 magnetization 
 augmentation part       -0.4563110 magnetization 

 Free energy of the ion-electron system (eV)
  ---------------------------------------------------
  alpha Z        PSCENC =         3.33880741
  Ewald energy   TEWEN  =      -227.98820643
  -Hartree energ DENC   =       -15.14610930
  -exchange      EXHF   =         0.00000000
  -V(xc)+E(xc)   XCENC  =       -17.97906421
  PAW double counting   =       860.34131987     -825.37593314
  entropy T*S    EENTRO =         0.00000000
  eigenvalues    EBANDS =         5.89424603
  atomic energy  EATOM  =       206.13149246
  Solvation  Ediel_sol  =         0.00000000
  ---------------------------------------------------
  free energy    TOTEN  =       -10.78344730 eV

  energy without entropy =      -10.78344730  energy(sigma->0) =      -10.78344730


--------------------------------------------------------------------------------------------------------




 average (electrostatic) potential at core
  the test charge radii are     0.9892
  (the norm of the test charge is              1.0000)
       1 -83.2994       2 -83.2994
 
 
 
 E-fermi :   5.7720     XC(G=0):  -9.3699     alpha+bet :-11.8943

 Fermi energy:         5.7720290646

 k-point     1 :       0.0000    0.0000    0.0000
  band No.  band energies     occupation 
      1      -6.1396      2.00000
      2       5.7723      2.00000
      3       5.7723      2.00000
      4       5.7723      2.00000
      5       8.3275      0.00000
      6       8.3275      0.00000
      7       8.3275      0.00000
      8       9.0647      0.00000

 k-point     2 :       0.2000   -0.0000   -0.0000
  band No.  band energies     occupation 
      1      -5.6253      2.00000
      2       2.7724      2.00000
      3       5.1963      2.00000
      4       5.1963      2.00000
      5       7.9680      0.00000
      6       9.1240      0.00000
      7       9.1240      0.00000
      8      11.7681      0.00000

 k-point     3 :       0.4000   -0.0000   -0.0000
  band No.  band energies     occupation 
      1      -4.2723      2.00000
      2      -0.4719      2.00000
      3       4.6513      2.00000
      4       4.6513      2.00000
      5       7.3669      0.00000
      6       9.1823      0.00000
      7       9.1823      0.00000
      8      13.5969      0.00000

 k-point     4 :       0.2000    0.2000   -0.0000
  band No.  band energies     occupation 
      1      -5.4482      2.00000
      2       3.1468      2.00000
      3       4.2940      2.00000
      4       4.2940      2.00000
      5       7.2337      0.00000
      6       9.6452      0.00000
      7      10.6452      0.00000
      8      10.6452      0.00000

 k-point     5 :       0.4000    0.2000   -0.0000
  band No.  band energies     occupation 
      1      -4.3142      2.00000
      2       0.4796      2.00000
      3       3.1626      2.00000
      4       3.7886      2.00000
      5       7.5459      0.00000
      6       9.8488      0.00000
      7      10.6792      0.00000
      8      11.1900      0.00000

 k-point     6 :      -0.4000    0.2000    0.0000
  band No.  band energies     occupation 
      1      -3.4375      2.00000
      2      -0.9025      2.00000
      3       2.3590      2.00000
      4       4.0688      2.00000
      5       7.8249      0.00000
      6      10.3562      0.00000
      7      10.5606      0.00000
      8      13.3128      0.00000

 k-point     7 :      -0.2000    0.2000   -0.0000
  band No.  band energies     occupation 
      1      -4.7990      2.00000
      2       1.3073      2.00000
      3       2.7919      2.00000
      4       4.9312      2.00000
      5       8.6474      0.00000
      6       9.7509      0.00000
      7      10.0678      0.00000
      8      11.4829      0.00000

 k-point     8 :       0.4000    0.4000   -0.0000
  band No.  band energies     occupation 
      1      -3.4433      2.00000
      2      -0.3906      2.00000
      3       3.0947      2.00000
      4       3.0947      2.00000
      5       6.3597      0.00000
      6       7.0897      0.00000
      7      14.2444      0.00000
      8      14.2444      0.00000

 k-point     9 :      -0.4000    0.4000   -0.0000
  band No.  band energies     occupation 
      1      -2.2478      2.00000
      2      -1.6436      2.00000
      3       1.7372      2.00000
      4       3.2125      2.00000
      5       6.8072      0.00000
      6       8.9183      0.00000
      7      13.8326      0.00000
      8      14.4085      0.00000

 k-point    10 :      -0.4000    0.4000    0.2000
  band No.  band energies     occupation 
      1      -3.0082      2.00000
      2      -0.7721      2.00000
      3       1.8205      2.00000
      4       2.8012      2.00000
      5       9.1590      0.00000
      6       9.5406      0.00000
      7      10.1814      0.00000
      8      13.5289      0.00000


--------------------------------------------------------------------------------------------------------


 soft charge-density along one line, spin component           1
         0         1         2         3         4         5         6         7         8         9
 total charge-density along one line
 
 pseudopotential strength for first ion, spin component:           1
 18.419  25.698   0.000   0.000   0.000   0.000   0.000   0.000
 25.698  35.858   0.000   0.000   0.000   0.000   0.000   0.000
  0.000   0.000   4.179  -0.000  -0.000   7.787  -0.000  -0.000
  0.000   0.000  -0.000   4.179  -0.000  -0.000   7.787  -0.000
  0.000   0.000  -0.000  -0.000   4.179  -0.000  -0.000   7.787
  0.000   0.000   7.787  -0.000  -0.000  14.522  -0.000  -0.000
  0.000   0.000  -0.000   7.787  -0.000  -0.000  14.522  -0.000
  0.000   0.000  -0.000  -0.000   7.787  -0.000  -0.000  14.522
 total augmentation occupancy for first ion, spin component:           1
  5.658  -2.131   0.000   0.000   0.000  -0.000  -0.000  -0.000
 -2.131   0.908  -0.000  -0.000   0.000   0.000   0.000  -0.000
  0.000  -0.000   2.968   0.000  -0.000  -0.666  -0.000   0.000
  0.000  -0.000   0.000   2.968  -0.000   0.000  -0.666  -0.000
  0.000   0.000  -0.000  -0.000   2.968   0.000   0.000  -0.666
  0.000   0.000  -0.666  -0.000  -0.000   0.158   0.000   0.000
  0.000   0.000  -0.000  -0.666   0.000   0.000   0.158   0.000
 -0.000   0.000  -0.000   0.000  -0.666   0.000   0.000   0.158


------------------------ aborting loop because EDIFF is reached ----------------------------------------





 total charge

# of ion       s       p       d       tot
------------------------------------------
    1        0.745   0.945   0.000   1.690
    2        0.745   0.945   0.000   1.690
--------------------------------------------------
tot          1.490   1.890   0.000   3.380
 
    CHARGE:  cpu time      0.0017: real time      0.0017
    FORLOC:  cpu time      0.0002: real time      0.0002
    FORNL :  cpu time      0.0008: real time      0.0008
    STRESS:  cpu time      0.0094: real time      0.0095
    FORCOR:  cpu time      0.0030: real time      0.0030
    FORHAR:  cpu time      0.0007: real time      0.0007
    MIXING:  cpu time      0.0003: real time      0.0003
    OFIELD:  cpu time      0.0000: real time      0.0000

  FORCE on cell =-STRESS in cart. coord.  units (eV):
  Direction    XX          YY          ZZ          XY          YZ          ZX
  --------------------------------------------------------------------------------------
  Alpha Z     3.33881     3.33881     3.33881
  Ewald     -75.99610   -75.99610   -75.99610    -0.00000     0.00000    -0.00000
  Hartree     5.04868     5.04868     5.04868     0.00000     0.00000     0.00000
  E(xc)     -25.34734   -25.34734   -25.34734    -0.00000    -0.00000    -0.00000
  Local     -29.40211   -29.40211   -29.40211     0.00002     0.00002     0.00002
  n-local    79.16140    79.69839    73.86606     2.52410    -1.02886     0.79079
  augment   -11.59227   -11.59227   -11.59227    -0.00002    -0.00002    -0.00002
  Kinetic    58.59817    57.03520    54.59025     3.75758    -1.02490     0.94580
  Fock        0.00000     0.00000     0.00000     0.00000     0.00000     0.00000
  -------------------------------------------------------------------------------------
  Total       0.36616     0.36616     0.36616    -0.00000     0.00000     0.00000
  in kB      14.54643    14.54643    14.54643    -0.00000     0.00000     0.00000
  external pressure =       14.55 kB  Pullay stress =        0.00 kB


 VOLUME and BASIS-vectors are now :
 -----------------------------------------------------------------------------
  energy-cutoff  :      400.00
  volume of cell :       40.33
      direct lattice vectors                 reciprocal lattice vectors
     0.000000000  2.721851186  2.721851186    -0.183698507  0.183698507  0.183698507
     2.721851186  0.000000000  2.721851186     0.183698507 -0.183698507  0.183698507
     2.721851186  2.721851186  0.000000000     0.183698507  0.183698507 -0.183698507

  length of vectors
     3.849278863  3.849278863  3.849278863     0.318175148  0.318175148  0.318175148


 FORCES acting on ions
    electron-ion (+dipol)            ewald-force                    non-local-force                 convergence-correction
 -----------------------------------------------------------------------------------------------
   -.844E-06 -.844E-06 -.879E-06   0.957E-15 0.317E-15 -.155E-13   0.776E-17 -.269E-16 0.161E-16   -.868E-10 -.868E-10 -.868E-10
   0.844E-06 0.844E-06 0.879E-06   -.847E-15 -.987E-15 0.155E-13   -.208E-16 0.486E-16 -.365E-17   0.868E-10 0.868E-10 0.868E-10
 -----------------------------------------------------------------------------------------------
   0.638E-14 0.109E-13 0.266E-13   0.110E-15 -.670E-15 0.225E-16   -.130E-16 0.217E-16 0.125E-16   0.237E-14 0.539E-15 -.153E-14
 
 
 POSITION                                       TOTAL-FORCE (eV/Angst)
 -----------------------------------------------------------------------------------
      1.36093      1.36093      1.36093        -0.000000     -0.000000     -0.000000
      0.00000      0.00000      0.00000         0.000000      0.000000      0.000000
 -----------------------------------------------------------------------------------
    total drift:                                0.000000      0.000000      0.000000


--------------------------------------------------------------------------------------------------------



  FREE ENERGIE OF THE ION-ELECTRON SYSTEM (eV)
  ---------------------------------------------------
  free  energy   TOTEN  =       -10.78344730 eV

  energy  without entropy=      -10.78344730  energy(sigma->0) =      -10.78344730
 


--------------------------------------------------------------------------------------------------------


    POTLOK:  cpu time      0.0389: real time      0.0390


--------------------------------------------------------------------------------------------------------


 stress matrix after NEB project (eV)
      0.36616     -0.00000      0.00000
     -0.00000      0.36616     -0.00000
      0.00000      0.00000      0.36616
  FORCES: max atom, RMS     0.000000    0.000000
  FORCE total and by dimension    0.000000    0.000000
  Stress total and by dimension    0.634205    0.366158


--------------------------------------------------------------------------------------------------------


    WAVPRE:  cpu time      0.0019: real time      0.0059
    FEWALD:  cpu time      0.0001: real time      0.0001
    GENKIN:  cpu time      0.0010: real time      0.0010
    ORTHCH:  cpu time      0.0005: real time      0.0005
     LOOP+:  cpu time      0.5298: real time      0.5399


--------------------------------------- Iteration      2(   1)  ---------------------------------------


    POTLOK:  cpu time      0.0031: real time      0.0032
    SETDIJ:  cpu time      0.0360: real time      0.0361
     EDDAV:  cpu time      0.0035: real time      0.0035
 BZINTS: Fermi energy:    5.445628;    8.000000 electrons
         Band energy: 0.397627E+01;  BLOECHL correction:    0.000000
       DOS:  cpu time      0.0003: real time      0.0003
    CHARGE:  cpu time      0.0016: real time      0.0017
    MIXING:  cpu time      0.0002: real time      0.0002
    --------------------------------------------
      LOOP:  cpu time      0.0447: real time      0.0449

 eigenvalue-minimisations  :   168
 total energy-change (2. order) :-0.5348751E-02  (-0.1485587E-01)
 number of electron       7.9999998 magnetization 
 augmentation part       -0.4580303 magnetization 

 Broyden mixing:
  rms(total) = 0.36011E-01    rms(broyden)= 0.36010E-01
  rms(prec ) = 0.92129E-01
  weight for this iteration     100.00

 Free energy of the ion-electron system (eV)
  ---------------------------------------------------
  alpha Z        PSCENC =         3.25188012
  Ewald energy   TEWEN  =      -225.99219203
  -Hartree energ DENC   =       -15.01347729
  -exchange      EXHF   =         0.00000000
  -V(xc)+E(xc)   XCENC  =       -18.10816037
  PAW double counting   =       860.39195834     -825.42657089
  entropy T*S    EENTRO =         0.00000000
  eigenvalues    EBANDS =         3.97627361
  atomic energy  EATOM  =       206.13149246
  Solvation  Ediel_sol  =         0.00000000
  ---------------------------------------------------
  free energy    TOTEN  =       -10.78879605 eV

  energy without entropy =      -10.78879605  energy(sigma->0) =      -10.78879605


--------------------------------------------------------------------------------------------------------




--------------------------------------- Iteration      2(   2)  ---------------------------------------


    POTLOK:  cpu time      0.0031: real time      0.0032
    SETDIJ:  cpu time      0.0361: real time      0.0362
     EDDAV:  cpu time      0.0058: real time      0.0059
 BZINTS: Fermi energy:    5.473460;    8.000000 electrons
         Band energy: 0.415889E+01;  BLOECHL correction:   -0.000000
       DOS:  cpu time      0.0003: real time      0.0003
    CHARGE:  cpu time      0.0018: real time      0.0018
    MIXING:  cpu time      0.0002: real time      0.0002
    --------------------------------------------
      LOOP:  cpu time      0.0473: real time      0.0476

 eigenvalue-minimisations  :   208
 total energy-change (2. order) : 0.2480643E-02  (-0.2123913E-03)
 number of electron       7.9999998 magnetization 
 augmentation part       -0.4573063 magnetization 

 Broyden mixing:
  rms(total) = 0.22461E-01    rms(broyden)= 0.22461E-01
  rms(prec ) = 0.53724E-01
  weight for this iteration     100.00

 eigenvalues of (default mixing * dielectric matrix)
  average eigenvalue GAMMA=   2.6015
  2.6015

 Free energy of the ion-electron system (eV)
  ---------------------------------------------------
  alpha Z        PSCENC =         3.25188012
  Ewald energy   TEWEN  =      -225.99219203
  -Hartree energ DENC   =       -15.20557500
  -exchange      EXHF   =         0.00000000
  -V(xc)+E(xc)   XCENC  =       -18.10201155
  PAW double counting   =       835.66605708     -800.69485939
  entropy T*S    EENTRO =         0.00000000
  eigenvalues    EBANDS =         4.15889292
  atomic energy  EATOM  =       206.13149246
  Solvation  Ediel_sol  =         0.00000000
  ---------------------------------------------------
  free energy    TOTEN  =       -10.78631541 eV

  energy without entropy =      -10.78631541  energy(sigma->0) =      -10.78631541


--------------------------------------------------------------------------------------------------------




--------------------------------------- Iteration      2(   3)  ---------------------------------------


    POTLOK:  cpu time      0.0032: real time      0.0033
    SETDIJ:  cpu time      0.0364: real time      0.0365
     EDDAV:  cpu time      0.0035: real time      0.0036
 BZINTS: Fermi energy:    5.510892;    8.000000 electrons
         Band energy: 0.440288E+01;  BLOECHL correction:   -0.000000
       DOS:  cpu time      0.0003: real time      0.0003
    CHARGE:  cpu time      0.0018: real time      0.0018
    MIXING:  cpu time      0.0002: real time      0.0002
    --------------------------------------------
      LOOP:  cpu time      0.0455: real time      0.0458

 eigenvalue-minimisations  :   176
 total energy-change (2. order) : 0.1331140E-02  (-0.2733045E-03)
 number of electron       7.9999998 magnetization 
 augmentation part       -0.4557363 magnetization 

 Broyden mixing:
  rms(total) = 0.73405E-02    rms(broyden)= 0.73405E-02
  rms(prec ) = 0.81289E-02
  weight for this iteration     100.00

 eigenvalues of (default mixing * dielectric matrix)
  average eigenvalue GAMMA=   1.3980
  2.2932  0.5029

 Free energy of the ion-electron system (eV)
  ---------------------------------------------------
  alpha Z        PSCENC =         3.25188012
  Ewald energy   TEWEN  =      -225.99219203
  -Hartree energ DENC   =       -15.46548136
  -exchange      EXHF   =         0.00000000
  -V(xc)+E(xc)   XCENC  =       -18.09652270
  PAW double counting   =       797.13766669     -762.15470682
  entropy T*S    EENTRO =         0.00000000
  eigenvalues    EBANDS =         4.40287937
  atomic energy  EATOM  =       206.13149246
  Solvation  Ediel_sol  =         0.00000000
  ---------------------------------------------------
  free energy    TOTEN  =       -10.78498426 eV

  energy without entropy =      -10.78498426  energy(sigma->0) =      -10.78498426


--------------------------------------------------------------------------------------------------------




--------------------------------------- Iteration      2(   4)  ---------------------------------------


    POTLOK:  cpu time      0.0032: real time      0.0033
    SETDIJ:  cpu time      0.0358: real time      0.0360
     EDDAV:  cpu time      0.0050: real time      0.0050
 BZINTS: Fermi energy:    5.510117;    8.000000 electrons
         Band energy: 0.439715E+01;  BLOECHL correction:   -0.000000
       DOS:  cpu time      0.0003: real time      0.0003
    CHARGE:  cpu time      0.0017: real time      0.0017
    MIXING:  cpu time      0.0002: real time      0.0002
    --------------------------------------------
      LOOP:  cpu time      0.0461: real time      0.0465

 eigenvalue-minimisations  :   200
 total energy-change (2. order) :-0.7832407E-06  (-0.2990330E-05)
 number of electron       7.9999998 magnetization 
 augmentation part       -0.4557431 magnetization 

 Broyden mixing:
  rms(total) = 0.64659E-02    rms(broyden)= 0.64659E-02
  rms(prec ) = 0.70567E-02
  weight for this iteration     100.00

 eigenvalues of (default mixing * dielectric matrix)
  average eigenvalue GAMMA=   1.8358
  2.4933  1.5071  1.5071

 Free energy of the ion-electron system (eV)
  ---------------------------------------------------
  alpha Z        PSCENC =         3.25188012
  Ewald energy   TEWEN  =      -225.99219203
  -Hartree energ DENC   =       -15.46005590
  -exchange      EXHF   =         0.00000000
  -V(xc)+E(xc)   XCENC  =       -18.09726867
  PAW double counting   =       800.30628683     -765.32227561
  entropy T*S    EENTRO =         0.00000000
  eigenvalues    EBANDS =         4.39714776
  atomic energy  EATOM  =       206.13149246
  Solvation  Ediel_sol  =         0.00000000
  ---------------------------------------------------
  free energy    TOTEN  =       -10.78498505 eV

  energy without entropy =      -10.78498505  energy(sigma->0) =      -10.78498505


--------------------------------------------------------------------------------------------------------




--------------------------------------- Iteration      2(   5)  ---------------------------------------


    POTLOK:  cpu time      0.0031: real time      0.0032
    SETDIJ:  cpu time      0.0359: real time      0.0360
     EDDAV:  cpu time      0.0049: real time      0.0050
 BZINTS: Fermi energy:    5.509772;    8.000000 electrons
         Band energy: 0.439514E+01;  BLOECHL correction:   -0.000000
       DOS:  cpu time      0.0003: real time      0.0003
    CHARGE:  cpu time      0.0016: real time      0.0016
    MIXING:  cpu time      0.0003: real time      0.0003
    --------------------------------------------
      LOOP:  cpu time      0.0460: real time      0.0463

 eigenvalue-minimisations  :   192
 total energy-change (2. order) : 0.6311562E-05  (-0.7431065E-06)
 number of electron       7.9999998 magnetization 
 augmentation part       -0.4557241 magnetization 

 Broyden mixing:
  rms(total) = 0.11735E-02    rms(broyden)= 0.11735E-02
  rms(prec ) = 0.12144E-02
  weight for this iteration     100.00

 eigenvalues of (default mixing * dielectric matrix)
  average eigenvalue GAMMA=   1.7416
  2.6981  2.2646  1.0019  1.0019

 Free energy of the ion-electron system (eV)
  ---------------------------------------------------
  alpha Z        PSCENC =         3.25188012
  Ewald energy   TEWEN  =      -225.99219203
  -Hartree energ DENC   =       -15.46049411
  -exchange      EXHF   =         0.00000000
  -V(xc)+E(xc)   XCENC  =       -18.09931116
  PAW double counting   =       813.50561848     -778.51711174
  entropy T*S    EENTRO =         0.00000000
  eigenvalues    EBANDS =         4.39513924
  atomic energy  EATOM  =       206.13149246
  Solvation  Ediel_sol  =         0.00000000
  ---------------------------------------------------
  free energy    TOTEN  =       -10.78497874 eV

  energy without entropy =      -10.78497874  energy(sigma->0) =      -10.78497874


--------------------------------------------------------------------------------------------------------




--------------------------------------- Iteration      2(   6)  ---------------------------------------


    POTLOK:  cpu time      0.0031: real time      0.0033
    SETDIJ:  cpu time      0.0358: real time      0.0359
     EDDAV:  cpu time      0.0041: real time      0.0042
 BZINTS: Fermi energy:    5.509753;    8.000000 electrons
         Band energy: 0.439449E+01;  BLOECHL correction:   -0.000000
       DOS:  cpu time      0.0003: real time      0.0003
    --------------------------------------------
      LOOP:  cpu time      0.0432: real time      0.0436

 eigenvalue-minimisations  :   208
 total energy-change (2. order) :-0.9252184E-07  (-0.1332936E-07)
 number of electron       7.9999998 magnetization 
 augmentation part       -0.4557241 magnetization 

 Free energy of the ion-electron system (eV)
  ---------------------------------------------------
  alpha Z        PSCENC =         3.25188012
  Ewald energy   TEWEN  =      -225.99219203
  -Hartree energ DENC   =       -15.45975594
  -exchange      EXHF   =         0.00000000
  -V(xc)+E(xc)   XCENC  =       -18.09933900
  PAW double counting   =       812.86428161     -777.87583352
  entropy T*S    EENTRO =         0.00000000
  eigenvalues    EBANDS =         4.39448748
  atomic energy  EATOM  =       206.13149246
  Solvation  Ediel_sol  =         0.00000000
  ---------------------------------------------------
  free energy    TOTEN  =       -10.78497883 eV

  energy without entropy =      -10.78497883  energy(sigma->0) =      -10.78497883


--------------------------------------------------------------------------------------------------------




 average (electrostatic) potential at core
  the test charge radii are     0.9892
  (the norm of the test charge is              1.0000)
       1 -83.5931       2 -83.5931
 
 
 
 E-fermi :   5.5098     XC(G=0):  -9.2672     alpha+bet :-11.5846

 Fermi energy:         5.5097534453

 k-point     1 :       0.0000    0.0000    0.0000
  band No.  band energies     occupation 
      1      -6.2236      2.00000
      2       5.5099      2.00000
      3       5.5099      2.00000
      4       5.5099      2.00000
      5       8.0540      0.00000
      6       8.0540      0.00000
      7       8.0540      0.00000
      8       8.5019      0.00000

 k-point     2 :       0.2000   -0.0000   -0.0000
  band No.  band energies     occupation 
      1      -5.7211      2.00000
      2       2.5391      2.00000
      3       4.9475      2.00000
      4       4.9475      2.00000
      5       7.6152      0.00000
      6       8.8355      0.00000
      7       8.8355      0.00000
      8      11.2838      0.00000

 k-point     3 :       0.4000   -0.0000   -0.0000
  band No.  band energies     occupation 
      1      -4.4048      2.00000
      2      -0.6352      2.00000
      3       4.4111      2.00000
      4       4.4111      2.00000
      5       7.0118      0.00000
      6       8.9245      0.00000
      7       8.9245      0.00000
      8      13.2862      0.00000

 k-point     4 :       0.2000    0.2000   -0.0000
  band No.  band energies     occupation 
      1      -5.5478      2.00000
      2       2.8660      2.00000
      3       4.0716      2.00000
      4       4.0716      2.00000
      5       6.9870      0.00000
      6       9.3305      0.00000
      7      10.3148      0.00000
      8      10.3148      0.00000

 k-point     5 :       0.4000    0.2000   -0.0000
  band No.  band energies     occupation 
      1      -4.4417      2.00000
      2       0.2682      2.00000
      3       2.9561      2.00000
      4       3.5755      2.00000
      5       7.2967      0.00000
      6       9.5597      0.00000
      7      10.3246      0.00000
      8      10.8759      0.00000

 k-point     6 :      -0.4000    0.2000    0.0000
  band No.  band energies     occupation 
      1      -3.5940      2.00000
      2      -1.0707      2.00000
      3       2.1723      2.00000
      4       3.8461      2.00000
      5       7.5605      0.00000
      6      10.0180      0.00000
      7      10.2698      0.00000
      8      12.9553      0.00000

 k-point     7 :      -0.2000    0.2000   -0.0000
  band No.  band energies     occupation 
      1      -4.9147      2.00000
      2       1.0762      2.00000
      3       2.6101      2.00000
      4       4.6852      2.00000
      5       8.3266      0.00000
      6       9.4504      0.00000
      7       9.7527      0.00000
      8      11.1101      0.00000

 k-point     8 :       0.4000    0.4000   -0.0000
  band No.  band energies     occupation 
      1      -3.5892      2.00000
      2      -0.6070      2.00000
      3       2.8978      2.00000
      4       2.8978      2.00000
      5       6.1423      0.00000
      6       6.8741      0.00000
      7      13.8398      0.00000
      8      13.8398      0.00000

 k-point     9 :      -0.4000    0.4000   -0.0000
  band No.  band energies     occupation 
      1      -2.4305      2.00000
      2      -1.8288      2.00000
      3       1.5894      2.00000
      4       3.0122      2.00000
      5       6.5863      0.00000
      6       8.6506      0.00000
      7      13.4387      0.00000
      8      14.0201      0.00000

 k-point    10 :      -0.4000    0.4000    0.2000
  band No.  band energies     occupation 
      1      -3.1699      2.00000
      2      -0.9806      2.00000
      3       1.6671      2.00000
      4       2.6231      2.00000
      5       8.8788      0.00000
      6       9.2894      0.00000
      7       9.8368      0.00000
      8      13.1549      0.00000


--------------------------------------------------------------------------------------------------------


 soft charge-density along one line, spin component           1
         0         1         2         3         4         5         6         7         8         9
 total charge-density along one line
 
 pseudopotential strength for first ion, spin component:           1
 18.449  25.739  -0.000  -0.000  -0.000  -0.000  -0.000  -0.000
 25.739  35.916  -0.000  -0.000  -0.000  -0.000  -0.000  -0.000
 -0.000  -0.000   4.182  -0.000  -0.000   7.793  -0.000  -0.000
 -0.000  -0.000  -0.000   4.182  -0.000  -0.000   7.793  -0.000
 -0.000  -0.000  -0.000  -0.000   4.182  -0.000  -0.000   7.793
 -0.000  -0.000   7.793  -0.000  -0.000  14.533  -0.000  -0.000
 -0.000  -0.000  -0.000   7.793  -0.000  -0.000  14.533  -0.000
 -0.000  -0.000  -0.000  -0.000   7.793  -0.000  -0.000  14.533
 total augmentation occupancy for first ion, spin component:           1
  5.431  -2.006   0.000   0.000   0.000   0.000   0.000   0.000
 -2.006   0.848   0.000   0.000   0.000  -0.000  -0.000  -0.000
  0.000   0.000   2.870   0.000  -0.000  -0.636   0.000   0.000
  0.000   0.000   0.000   2.870   0.000   0.000  -0.636  -0.000
  0.000   0.000  -0.000   0.000   2.870   0.000  -0.000  -0.636
  0.000  -0.000  -0.636   0.000   0.000   0.149   0.000  -0.000
  0.000  -0.000  -0.000  -0.636  -0.000   0.000   0.149   0.000
  0.000  -0.000   0.000  -0.000  -0.636  -0.000   0.000   0.149


------------------------ aborting loop because EDIFF is reached ----------------------------------------





 total charge

# of ion       s       p       d       tot
------------------------------------------
    1        0.745   0.927   0.000   1.672
    2        0.745   0.927   0.000   1.672
--------------------------------------------------
tot          1.490   1.854   0.000   3.344
 
    CHARGE:  cpu time      0.0016: real time      0.0016
    FORLOC:  cpu time      0.0002: real time      0.0002
    FORNL :  cpu time      0.0008: real time      0.0008
    STRESS:  cpu time      0.0095: real time      0.0095
    FORCOR:  cpu time      0.0030: real time      0.0030
    FORHAR:  cpu time      0.0006: real time      0.0007
    MIXING:  cpu time      0.0003: real time      0.0003
    OFIELD:  cpu time      0.0000: real time      0.0000

  FORCE on cell =-STRESS in cart. coord.  units (eV):
  Direction    XX          YY          ZZ          XY          YZ          ZX
  --------------------------------------------------------------------------------------
  Alpha Z     3.25188     3.25188     3.25188
  Ewald     -75.33076   -75.33076   -75.33076     0.00000     0.00000    -0.00000
  Hartree     5.15349     5.15349     5.15349     0.00000     0.00000     0.00000
  E(xc)     -25.19516   -25.19516   -25.19516    -0.00000    -0.00000    -0.00000
  Local     -29.76960   -29.76960   -29.76960     0.00002     0.00002     0.00002
  n-local    78.66600    79.20182    73.42208     2.45963    -1.00120     0.76826
  augment   -11.58658   -11.58658   -11.58658    -0.00002    -0.00002    -0.00002
  Kinetic    58.03519    56.57260    53.80967     3.75459    -1.04836     0.95775
  Fock        0.00000     0.00000     0.00000     0.00000     0.00000     0.00000
  -------------------------------------------------------------------------------------
  Total      -0.24095    -0.24095    -0.24095    -0.00000     0.00000    -0.00000
  in kB      -9.32288    -9.32288    -9.32288    -0.00000     0.00000    -0.00000
  external pressure =       -9.32 kB  Pullay stress =        0.00 kB


 VOLUME and BASIS-vectors are now :
 -----------------------------------------------------------------------------
  energy-cutoff  :      400.00
  volume of cell :       41.41
      direct lattice vectors                 reciprocal lattice vectors
     0.000000000  2.745891195  2.745891195    -0.182090245  0.182090245  0.182090245
     2.745891195 -0.000000000  2.745891195     0.182090245 -0.182090245  0.182090245
     2.745891195  2.745891195  0.000000000     0.182090245  0.182090245 -0.182090245

  length of vectors
     3.883276568  3.883276568  3.883276568     0.315389556  0.315389556  0.315389556


 FORCES acting on ions
    electron-ion (+dipol)            ewald-force                    non-local-force                 convergence-correction
 -----------------------------------------------------------------------------------------------
   -.914E-06 -.914E-06 -.974E-06   0.841E-14 -.101E-13 0.821E-14   0.544E-16 -.560E-16 -.417E-16   0.223E-09 0.223E-09 0.223E-09
   0.914E-06 0.914E-06 0.974E-06   -.861E-14 0.102E-13 -.791E-14   -.295E-16 0.462E-16 0.326E-16   -.223E-09 -.223E-09 -.223E-09
 -----------------------------------------------------------------------------------------------
   0.449E-13 0.349E-13 0.231E-13   -.197E-15 0.141E-15 0.300E-15   0.249E-16 -.978E-17 -.917E-17   0.179E-14 -.271E-15 -.115E-14
 
 
 POSITION                                       TOTAL-FORCE (eV/Angst)
 -----------------------------------------------------------------------------------
      1.37295      1.37295      1.37295         0.000000      0.000000      0.000000
      0.00000      0.00000      0.00000        -0.000000     -0.000000     -0.000000
[...]


--------------------------------------------------------------------------------------------------------




--------------------------------------- Iteration      3(   3)  ---------------------------------------


    POTLOK:  cpu time      0.0031: real time      0.0033
    SETDIJ:  cpu time      0.0358: real time      0.0359
     EDDAV:  cpu time      0.0039: real time      0.0039
 BZINTS: Fermi energy:    5.615601;    8.000000 electrons
         Band energy: 0.499830E+01;  BLOECHL correction:    0.000000
       DOS:  cpu time      0.0003: real time      0.0003
    CHARGE:  cpu time      0.0016: real time      0.0017
    MIXING:  cpu time      0.0002: real time      0.0002
    --------------------------------------------
      LOOP:  cpu time      0.0449: real time      0.0452

 eigenvalue-minimisations  :   184
 total energy-change (2. order) : 0.2130592E-03  (-0.4579249E-04)
 number of electron       8.0000000 magnetization 
 augmentation part       -0.4559342 magnetization 

 Broyden mixing:
  rms(total) = 0.30947E-02    rms(broyden)= 0.30946E-02
  rms(prec ) = 0.34149E-02
  weight for this iteration     100.00

 eigenvalues of (default mixing * dielectric matrix)
  average eigenvalue GAMMA=   1.3873
  2.2925  0.4821

 Free energy of the ion-electron system (eV)
  ---------------------------------------------------
  alpha Z        PSCENC =         3.28700818
  Ewald energy   TEWEN  =      -226.80303095
  -Hartree energ DENC   =       -15.32973658
  -exchange      EXHF   =         0.00000000
  -V(xc)+E(xc)   XCENC  =       -18.05166015
  PAW double counting   =       837.24381195     -802.26247245
  entropy T*S    EENTRO =         0.00000000
  eigenvalues    EBANDS =         4.99830447
  atomic energy  EATOM  =       206.13149246
  Solvation  Ediel_sol  =         0.00000000
  ---------------------------------------------------
  free energy    TOTEN  =       -10.78628308 eV

  energy without entropy =      -10.78628308  energy(sigma->0) =      -10.78628308


--------------------------------------------------------------------------------------------------------




--------------------------------------- Iteration      3(   4)  ---------------------------------------


    POTLOK:  cpu time      0.0030: real time      0.0032
    SETDIJ:  cpu time      0.0359: real time      0.0360
     EDDAV:  cpu time      0.0055: real time      0.0055
 BZINTS: Fermi energy:    5.615811;    8.000000 electrons
         Band energy: 0.500065E+01;  BLOECHL correction:   -0.000000
       DOS:  cpu time      0.0003: real time      0.0003
    CHARGE:  cpu time      0.0016: real time      0.0016
    MIXING:  cpu time      0.0002: real time      0.0002
    --------------------------------------------
      LOOP:  cpu time      0.0465: real time      0.0469

 eigenvalue-minimisations  :   216
 total energy-change (2. order) :-0.8731456E-06  (-0.5010036E-06)
 number of electron       8.0000000 magnetization 
 augmentation part       -0.4559318 magnetization 

 Broyden mixing:
  rms(total) = 0.27323E-02    rms(broyden)= 0.27323E-02
  rms(prec ) = 0.29756E-02
  weight for this iteration     100.00

 eigenvalues of (default mixing * dielectric matrix)
  average eigenvalue GAMMA=   1.8632
  2.5099  1.5398  1.5398

 Free energy of the ion-electron system (eV)
  ---------------------------------------------------
  alpha Z        PSCENC =         3.28700818
  Ewald energy   TEWEN  =      -226.80303095
  -Hartree energ DENC   =       -15.33197156
  -exchange      EXHF   =         0.00000000
  -V(xc)+E(xc)   XCENC  =       -18.05135751
  PAW double counting   =       835.91871786     -800.93779356
  entropy T*S    EENTRO =         0.00000000
  eigenvalues    EBANDS =         5.00065113
  atomic energy  EATOM  =       206.13149246
  Solvation  Ediel_sol  =         0.00000000
  ---------------------------------------------------
  free energy    TOTEN  =       -10.78628395 eV

  energy without entropy =      -10.78628395  energy(sigma->0) =      -10.78628395


--------------------------------------------------------------------------------------------------------




--------------------------------------- Iteration      3(   5)  ---------------------------------------


    POTLOK:  cpu time      0.0031: real time      0.0033
    SETDIJ:  cpu time      0.0359: real time      0.0360
     EDDAV:  cpu time      0.0049: real time      0.0050
 BZINTS: Fermi energy:    5.615745;    8.000000 electrons
         Band energy: 0.500181E+01;  BLOECHL correction:   -0.000000
       DOS:  cpu time      0.0003: real time      0.0003
    CHARGE:  cpu time      0.0016: real time      0.0016
    MIXING:  cpu time      0.0002: real time      0.0002
    --------------------------------------------
      LOOP:  cpu time      0.0460: real time      0.0464

 eigenvalue-minimisations  :   200
 total energy-change (2. order) :-0.2106681E-05  (-0.1244179E-06)
 number of electron       8.0000000 magnetization 
 augmentation part       -0.4559379 magnetization 

 Broyden mixing:
  rms(total) = 0.57670E-03    rms(broyden)= 0.57670E-03
  rms(prec ) = 0.58903E-03
  weight for this iteration     100.00

 eigenvalues of (default mixing * dielectric matrix)
  average eigenvalue GAMMA=   1.7365
  2.6907  2.2532  1.0010  1.0010

 Free energy of the ion-electron system (eV)
  ---------------------------------------------------
  alpha Z        PSCENC =         3.28700818
  Ewald energy   TEWEN  =      -226.80303095
  -Hartree energ DENC   =       -15.33216665
  -exchange      EXHF   =         0.00000000
  -V(xc)+E(xc)   XCENC  =       -18.05044183
  PAW double counting   =       830.14004936     -795.16100648
  entropy T*S    EENTRO =         0.00000000
  eigenvalues    EBANDS =         5.00180986
  atomic energy  EATOM  =       206.13149246
  Solvation  Ediel_sol  =         0.00000000
  ---------------------------------------------------
  free energy    TOTEN  =       -10.78628606 eV

  energy without entropy =      -10.78628606  energy(sigma->0) =      -10.78628606


--------------------------------------------------------------------------------------------------------




--------------------------------------- Iteration      3(   6)  ---------------------------------------


    POTLOK:  cpu time      0.0031: real time      0.0033
    SETDIJ:  cpu time      0.0359: real time      0.0360
     EDDAV:  cpu time      0.0041: real time      0.0041
 BZINTS: Fermi energy:    5.615741;    8.000000 electrons
         Band energy: 0.500189E+01;  BLOECHL correction:   -0.000000
       DOS:  cpu time      0.0003: real time      0.0003
    --------------------------------------------
      LOOP:  cpu time      0.0433: real time      0.0436

 eigenvalue-minimisations  :   160
 total energy-change (2. order) : 0.2419074E-07  (-0.1459653E-08)
 number of electron       8.0000000 magnetization 
 augmentation part       -0.4559379 magnetization 

 Free energy of the ion-electron system (eV)
  ---------------------------------------------------
  alpha Z        PSCENC =         3.28700818
  Ewald energy   TEWEN  =      -226.80303095
  -Hartree energ DENC   =       -15.33229031
  -exchange      EXHF   =         0.00000000
  -V(xc)+E(xc)   XCENC  =       -18.05045063
  PAW double counting   =       830.54793447     -795.56884220
  entropy T*S    EENTRO =         0.00000000
  eigenvalues    EBANDS =         5.00189295
  atomic energy  EATOM  =       206.13149246
  Solvation  Ediel_sol  =         0.00000000
  ---------------------------------------------------
  free energy    TOTEN  =       -10.78628603 eV

  energy without entropy =      -10.78628603  energy(sigma->0) =      -10.78628603


--------------------------------------------------------------------------------------------------------




 average (electrostatic) potential at core
  the test charge radii are     0.9892
  (the norm of the test charge is              1.0000)
       1 -83.4740       2 -83.4740
 
 
 
 E-fermi :   5.6157     XC(G=0):  -9.3088     alpha+bet :-11.7097

 Fermi energy:         5.6157412388

 k-point     1 :       0.0000    0.0000    0.0000
  band No.  band energies     occupation 
      1      -6.1896      2.00000
      2       5.6161      2.00000
      3       5.6161      2.00000
      4       5.6161      2.00000
      5       8.1648      0.00000
      6       8.1648      0.00000
      7       8.1648      0.00000
      8       8.7298      0.00000

 k-point     2 :       0.2000   -0.0000   -0.0000
  band No.  band energies     occupation 
      1      -5.6823      2.00000
      2       2.6338      2.00000
      3       5.0482      2.00000
      4       5.0482      2.00000
      5       7.7586      0.00000
      6       8.9524      0.00000
      7       8.9524      0.00000
      8      11.4794      0.00000

 k-point     3 :       0.4000   -0.0000   -0.0000
  band No.  band energies     occupation 
      1      -4.3511      2.00000
      2      -0.5689      2.00000
      3       4.5083      2.00000
      4       4.5083      2.00000
      5       7.1558      0.00000
      6       9.0291      0.00000
      7       9.0291      0.00000
      8      13.4128      0.00000

 k-point     4 :       0.2000    0.2000   -0.0000
  band No.  band energies     occupation 
      1      -5.5074      2.00000
      2       2.9799      2.00000
      3       4.1616      2.00000
      4       4.1616      2.00000
      5       7.0870      0.00000
      6       9.4597      0.00000
      7      10.4486      0.00000
      8      10.4486      0.00000

 k-point     5 :       0.4000    0.2000   -0.0000
  band No.  band energies     occupation 
      1      -4.3900      2.00000
      2       0.3540      2.00000
      3       3.0395      2.00000
      4       3.6617      2.00000
      5       7.3979      0.00000
      6       9.6782      0.00000
      7      10.4671      0.00000
      8      11.0033      0.00000

 k-point     6 :      -0.4000    0.2000    0.0000
  band No.  band energies     occupation 
      1      -3.5306      2.00000
      2      -1.0023      2.00000
      3       2.2477      2.00000
      4       3.9362      2.00000
      5       7.6681      0.00000
      6      10.1551      0.00000
      7      10.3878      0.00000
      8      13.1002      0.00000

 k-point     7 :      -0.2000    0.2000   -0.0000
  band No.  band energies     occupation 
      1      -4.8678      2.00000
      2       1.1699      2.00000
      3       2.6837      2.00000
      4       4.7847      2.00000
      5       8.4572      0.00000
      6       9.5721      0.00000
      7       9.8805      0.00000
      8      11.2611      0.00000

 k-point     8 :       0.4000    0.4000   -0.0000
  band No.  band energies     occupation 
      1      -3.5301      2.00000
      2      -0.5193      2.00000
      3       2.9774      2.00000
      4       2.9774      2.00000
      5       6.2305      0.00000
      6       6.9618      0.00000
      7      14.0040      0.00000
      8      14.0040      0.00000

 k-point     9 :      -0.4000    0.4000   -0.0000
  band No.  band energies     occupation 
      1      -2.3565      2.00000
      2      -1.7537      2.00000
      3       1.6493      2.00000
      4       3.0932      2.00000
      5       6.6760      0.00000
      6       8.7593      0.00000
      7      13.5985      0.00000
      8      14.1783      0.00000

 k-point    10 :      -0.4000    0.4000    0.2000
  band No.  band energies     occupation 
      1      -3.1044      2.00000
      2      -0.8961      2.00000
      3       1.7292      2.00000
      4       2.6952      2.00000
      5       8.9925      0.00000
      6       9.3915      0.00000
      7       9.9765      0.00000
      8      13.3074      0.00000


--------------------------------------------------------------------------------------------------------


 soft charge-density along one line, spin component           1
         0         1         2         3         4         5         6         7         8         9
 total charge-density along one line
 
 pseudopotential strength for first ion, spin component:           1
 18.437  25.723   0.000   0.000   0.000   0.000   0.000   0.000
 25.723  35.892   0.000   0.000   0.000   0.000   0.000   0.000
  0.000   0.000   4.181  -0.000  -0.000   7.791  -0.000  -0.000
  0.000   0.000  -0.000   4.181  -0.000  -0.000   7.791  -0.000
  0.000   0.000  -0.000  -0.000   4.181  -0.000  -0.000   7.791
  0.000   0.000   7.791  -0.000  -0.000  14.528  -0.000  -0.000
  0.000   0.000  -0.000   7.791  -0.000  -0.000  14.528  -0.000
  0.000   0.000  -0.000  -0.000   7.791  -0.000  -0.000  14.528
 total augmentation occupancy for first ion, spin component:           1
  5.522  -2.056  -0.000  -0.000   0.000   0.000   0.000   0.000
 -2.056   0.872   0.000   0.000   0.000   0.000  -0.000   0.000
  0.000  -0.000   2.909  -0.000   0.000  -0.648   0.000  -0.000
  0.000   0.000  -0.000   2.909   0.000   0.000  -0.648   0.000
  0.000   0.000   0.000   0.000   2.909  -0.000   0.000  -0.648
  0.000  -0.000  -0.648   0.000  -0.000   0.153   0.000   0.000
  0.000  -0.000   0.000  -0.648   0.000  -0.000   0.153   0.000
 -0.000  -0.000  -0.000   0.000  -0.648  -0.000  -0.000   0.153


------------------------ aborting loop because EDIFF is reached ----------------------------------------





 total charge

# of ion       s       p       d       tot
------------------------------------------
    1        0.745   0.934   0.000   1.679
    2        0.745   0.934   0.000   1.679
--------------------------------------------------
tot          1.490   1.868   0.000   3.359
 
    CHARGE:  cpu time      0.0016: real time      0.0016
    FORLOC:  cpu time      0.0002: real time      0.0002
    FORNL :  cpu time      0.0008: real time      0.0008
    STRESS:  cpu time      0.0094: real time      0.0095
    FORCOR:  cpu time      0.0029: real time      0.0030
    FORHAR:  cpu time      0.0006: real time      0.0006
    MIXING:  cpu time      0.0003: real time      0.0003
    OFIELD:  cpu time      0.0000: real time      0.0000

  FORCE on cell =-STRESS in cart. coord.  units (eV):
  Direction    XX          YY          ZZ          XY          YZ          ZX
  --------------------------------------------------------------------------------------
  Alpha Z     3.28701     3.28701     3.28701
  Ewald     -75.60104   -75.60104   -75.60104     0.00000    -0.00000     0.00000
  Hartree     5.11065     5.11065     5.11065     0.00000     0.00000     0.00000
  E(xc)     -25.25682   -25.25682   -25.25682    -0.00000    -0.00000    -0.00000
  Local     -29.61861   -29.61861   -29.61861     0.00002     0.00002     0.00002
  n-local    78.86233    79.39855    73.59787     2.48545    -1.01236     0.77736
  augment   -11.58826   -11.58826   -11.58826    -0.00002    -0.00002    -0.00002
  Kinetic    58.26224    56.75912    54.12490     3.75568    -1.03878     0.95281
  Fock        0.00000     0.00000     0.00000     0.00000     0.00000     0.00000
  -------------------------------------------------------------------------------------
  Total       0.00127     0.00127     0.00127     0.00000     0.00000    -0.00000
  in kB       0.04970     0.04970     0.04970     0.00000     0.00000    -0.00000
  external pressure =        0.05 kB  Pullay stress =        0.00 kB


 VOLUME and BASIS-vectors are now :
 -----------------------------------------------------------------------------
  energy-cutoff  :      400.00
  volume of cell :       40.97
      direct lattice vectors                 reciprocal lattice vectors
     0.000000000  2.736074415  2.736074415    -0.182743568  0.182743568  0.182743568
     2.736074415 -0.000000000  2.736074415     0.182743568 -0.182743568  0.182743568
     2.736074415  2.736074415  0.000000000     0.182743568  0.182743568 -0.182743568

  length of vectors
     3.869393545  3.869393545  3.869393545     0.316521144  0.316521144  0.316521144


 FORCES acting on ions
    electron-ion (+dipol)            ewald-force                    non-local-force                 convergence-correction
 -----------------------------------------------------------------------------------------------
   -.897E-06 -.897E-06 -.952E-06   -.661E-15 -.104E-14 0.162E-13   -.237E-16 0.248E-16 -.701E-17   -.299E-09 -.299E-09 -.299E-09
   0.897E-06 0.897E-06 0.952E-06   0.641E-15 0.953E-15 -.162E-13   -.179E-16 -.179E-16 -.696E-17   0.299E-09 0.299E-09 0.299E-09
 -----------------------------------------------------------------------------------------------
   0.149E-13 0.173E-13 0.280E-13   -.194E-16 -.835E-16 -.330E-16   -.416E-16 0.693E-17 -.140E-16   0.149E-14 0.303E-14 0.992E-15
 
 
 POSITION                                       TOTAL-FORCE (eV/Angst)
 -----------------------------------------------------------------------------------
      1.36804      1.36804      1.36804         0.000000      0.000000      0.000000
      0.00000      0.00000      0.00000        -0.000000     -0.000000     -0.000000
 -----------------------------------------------------------------------------------
    total drift:                                0.000000      0.000000      0.000000


--------------------------------------------------------------------------------------------------------



  FREE ENERGIE OF THE ION-ELECTRON SYSTEM (eV)
  ---------------------------------------------------
  free  energy   TOTEN  =       -10.78628603 eV

  energy  without entropy=      -10.78628603  energy(sigma->0) =      -10.78628603
 
 d Force = 0.0000000E+00[ 0.000E+00, 0.000E+00]  d Energy = 0.1307202E-02-0.131E-02
 d Force = 0.0000000E+00[ 0.000E+00, 0.000E+00]  d Ewald  = 0.8108389E+00-0.811E+00


--------------------------------------------------------------------------------------------------------


    POTLOK:  cpu time      0.0387: real time      0.0388


--------------------------------------------------------------------------------------------------------


 stress matrix after NEB project (eV)
      0.00127     -0.00000     -0.00000
      0.00000      0.00127     -0.00000
     -0.00000      0.00000      0.00127
  FORCES: max atom, RMS     0.000000    0.000000
  FORCE total and by dimension    0.000000    0.000000
  Stress total and by dimension    0.002201    0.001271


--------------------------------------------------------------------------------------------------------


  
 reached required accuracy - stopping structural energy minimisation
     LOOP+:  cpu time      0.3644: real time      0.3773
    4ORBIT:  cpu time      0.0000: real time      0.0000



 total charge

# of ion       s       p       d       tot
------------------------------------------
    1        0.745   0.934   0.000   1.679
    2        0.745   0.934   0.000   1.679
--------------------------------------------------
tot          1.490   1.868   0.000   3.359
 
 BZINTS: Fermi energy:    5.615741;    8.000000 electrons
         Band energy: 0.500189E+01;  BLOECHL correction:   -0.000000

 total amount of memory used by VASP MPI-rank0    31663. kBytes
=======================================================================

   base      :      30000. kBytes
   nonl-proj :        499. kBytes
   fftplans  :        314. kBytes
   grid      :        723. kBytes
   one-center:          6. kBytes
   wavefun   :        121. kBytes
 
  
  
 General timing and accounting informations for this job:
 ========================================================
  
                  Total CPU time used (sec):        1.754
                            User time (sec):        1.449
                          System time (sec):        0.306
                         Elapsed time (sec):        2.782
  
                   Maximum memory used (kb):      262476.
                   Average memory used (kb):          N/A
  
                          Minor page faults:        15087
                          Major page faults:           34
                 Voluntary context switches:         2697
