PROCAR new format
# of k-points:   10         # of bands:    8         # of ions:    2

 k-point     1 :    0.00000000 0.00000000 0.00000000     weight = 0.00800000

band     1 # energy   -6.18958057 # occ.  2.00000000
 
ion      s      p      d    tot
    1  0.212  0.000  0.000  0.212
    2  0.212  0.000  0.000  0.212
tot    0.423  0.000  0.000  0.423
 
band     2 # energy    5.61606893 # occ.  1.99999998
 
ion      s      p      d    tot
    1  0.000  0.214  0.000  0.214
    2  0.000  0.214  0.000  0.214
tot    0.000  0.427  0.000  0.427
 
band     3 # energy    5.61606981 # occ.  1.99999964
 
ion      s      p      d    tot
    1  0.000  0.214  0.000  0.214
    2  0.000  0.214  0.000  0.214
tot    0.000  0.427  0.000  0.427
 
band     4 # energy    5.61606981 # occ.  1.99999964
 
ion      s      p      d    tot
    1  0.000  0.214  0.000  0.214
    2  0.000  0.214  0.000  0.214
tot    0.000  0.427  0.000  0.427
 
band     5 # energy    8.16476480 # occ.  0.00000000
 
ion      s      p      d    tot
    1  0.000  0.151  0.000  0.151
    2  0.000  0.151  0.000  0.151
tot    0.000  0.301  0.000  0.301
 
band     6 # energy    8.16476530 # occ.  0.00000000
 
ion      s      p      d    tot
    1  0.000  0.151  0.000  0.151
    2  0.000  0.151  0.000  0.151
tot    0.000  0.301  0.000  0.301
 
band     7 # energy    8.16476530 # occ.  0.00000000
 
ion      s      p      d    tot
    1  0.000  0.151  0.000  0.151
    2  0.000  0.151  0.000  0.151
tot    0.000  0.301  0.000  0.301
 
band     8 # energy    8.72982149 # occ.  0.00000000
 
ion      s      p      d    tot
    1  0.358  0.000  0.000  0.358
    2  0.358  0.000  0.000  0.358
tot    0.717  0.000  0.000  0.717
 

 k-point     2 :    0.20000000-0.00000000-0.00000000     weight = 0.06400000

band     1 # energy   -5.68227237 # occ.  2.00000000
 
ion      s      p      d    tot
    1  0.210  0.005  0.000  0.215
    2  0.210  0.005  0.000  0.215
tot    0.419  0.010  0.000  0.430
 
band     2 # energy    2.63383509 # occ.  2.00000000
 
ion      s      p      d    tot
    1  0.087  0.129  0.000  0.217
    2  0.087  0.129  0.000  0.217
tot    0.175  0.259  0.000  0.434
 
band     3 # energy    5.04815812 # occ.  1.99999999
 
ion      s      p      d    tot
    1  0.000  0.210  0.000  0.210
    2  0.000  0.210  0.000  0.210
tot    0.000  0.421  0.000  0.421
 
band     4 # energy    5.04815862 # occ.  1.99999999
 
ion      s      p      d    tot
    1  0.000  0.210  0.000  0.210
    2  0.000  0.210  0.000  0.210
tot    0.000  0.421  0.000  0.421
 
band     5 # energy    7.75860132 # occ.  0.00000000
 
ion      s      p      d    tot
    1  0.142  0.062  0.000  0.204
    2  0.142  0.062  0.000  0.204
tot    0.285  0.123  0.000  0.408
 
band     6 # energy    8.95238468 # occ.  0.00000000
 
ion      s      p      d    tot
    1  0.000  0.149  0.000  0.149
    2  0.000  0.149  0.000  0.149
tot    0.000  0.299  0.000  0.299
 
band     7 # energy    8.95238575 # occ.  0.00000000
 
ion      s      p      d    tot
    1  0.000  0.149  0.000  0.149
    2  0.000  0.149  0.000  0.149
tot    0.000  0.299  0.000  0.299
 
band     8 # energy   11.47935684 # occ.  0.00000000
 
ion      s      p      d    tot
    1  0.143  0.133  0.000  0.276
    2  0.143  0.133  0.000  0.276
tot    0.287  0.266  0.000  0.553
 

 k-point     3 :    0.40000000-0.00000000-0.00000000     weight = 0.06400000

band     1 # energy   -4.35111247 # occ.  2.00000000
 
ion      s      p      d    tot
    1  0.214  0.014  0.000  0.228
    2  0.214  0.014  0.000  0.228
tot    0.427  0.028  0.000  0.456
 
band     2 # energy   -0.56891428 # occ.  2.00000000
 
ion      s      p      d    tot
    1  0.107  0.094  0.000  0.201
    2  0.107  0.094  0.000  0.201
tot    0.214  0.187  0.000  0.401
 
band     3 # energy    4.50825945 # occ.  2.00000000
 
ion      s      p      d    tot
    1  0.000  0.214  0.000  0.214
    2  0.000  0.214  0.000  0.214
tot    0.000  0.428  0.000  0.428
 
band     4 # energy    4.50825980 # occ.  2.00000000
 
ion      s      p      d    tot
    1  0.000  0.214  0.000  0.214
    2  0.000  0.214  0.000  0.214
tot    0.000  0.428  0.000  0.428
 
band     5 # energy    7.15580526 # occ.  0.00000000
 
ion      s      p      d    tot
    1  0.180  0.025  0.000  0.205
    2  0.180  0.025  0.000  0.205
tot    0.361  0.050  0.000  0.411
 
band     6 # energy    9.02908573 # occ.  0.00000000
 
ion      s      p      d    tot
    1  0.000  0.102  0.000  0.102
    2  0.000  0.102  0.000  0.102
tot    0.000  0.204  0.000  0.204
 
band     7 # energy    9.02908881 # occ.  0.00000000
 
ion      s      p      d    tot
    1  0.000  0.102  0.000  0.102
    2  0.000  0.102  0.000  0.102
tot    0.000  0.204  0.000  0.204
 
band     8 # energy   13.41284321 # occ.  0.00000000
 
ion      s      p      d    tot
    1  0.004  0.072  0.000  0.076
    2  0.004  0.072  0.000  0.076
tot    0.007  0.145  0.000  0.152
 

 k-point     4 :    0.20000000 0.20000000-0.00000000     weight = 0.04800000

band     1 # energy   -5.50744129 # occ.  2.00000000
 
ion      s      p      d    tot
    1  0.208  0.007  0.000  0.216
    2  0.208  0.007  0.000  0.216
tot    0.417  0.015  0.000  0.431
 
band     2 # energy    2.97986308 # occ.  2.00000000
 
ion      s      p      d    tot
    1  0.140  0.112  0.000  0.252
    2  0.140  0.112  0.000  0.252
tot    0.280  0.224  0.000  0.504
 
band     3 # energy    4.16157212 # occ.  2.00000007
 
ion      s      p      d    tot
    1  0.000  0.197  0.000  0.197
    2  0.000  0.197  0.000  0.197
tot    0.000  0.395  0.000  0.395
 
band     4 # energy    4.16157265 # occ.  2.00000007
 
ion      s      p      d    tot
    1  0.000  0.197  0.000  0.197
    2  0.000  0.197  0.000  0.197
tot    0.000  0.395  0.000  0.395
 
band     5 # energy    7.08697811 # occ.  0.00000000
 
ion      s      p      d    tot
    1  0.035  0.092  0.000  0.127
    2  0.035  0.092  0.000  0.127
tot    0.069  0.184  0.000  0.253
 
band     6 # energy    9.45973438 # occ.  0.00000000
 
ion      s      p      d    tot
    1  0.078  0.055  0.000  0.133
    2  0.078  0.055  0.000  0.133
tot    0.157  0.110  0.000  0.267
 
band     7 # energy   10.44864577 # occ.  0.00000000
 
ion      s      p      d    tot
    1  0.000  0.166  0.000  0.166
    2  0.000  0.166  0.000  0.166
tot    0.000  0.333  0.000  0.333
 
band     8 # energy   10.44864616 # occ.  0.00000000
 
ion      s      p      d    tot
    1  0.000  0.166  0.000  0.166
    2  0.000  0.166  0.000  0.166
tot    0.000  0.333  0.000  0.333
 

 k-point     5 :    0.40000000 0.20000000-0.00000000     weight = 0.19200000

band     1 # energy   -4.39003722 # occ.  2.00000000
 
ion      s      p      d    tot
    1  0.207  0.018  0.000  0.224
    2  0.207  0.018  0.000  0.224
tot    0.413  0.035  0.000  0.448
 
band     2 # energy    0.35401393 # occ.  2.00000000
 
ion      s      p      d    tot
    1  0.142  0.088  0.000  0.230
    2  0.142  0.088  0.000  0.230
tot    0.284  0.176  0.000  0.460
 
band     3 # energy    3.03953003 # occ.  2.00000000
 
ion      s      p      d    tot
    1  0.032  0.160  0.000  0.191
    2  0.032  0.160  0.000  0.191
tot    0.063  0.319  0.000  0.382
 
band     4 # energy    3.66170659 # occ.  2.00000000
 
ion      s      p      d    tot
    1  0.000  0.199  0.000  0.199
    2  0.000  0.199  0.000  0.199
tot    0.000  0.397  0.000  0.397
 
band     5 # energy    7.39792411 # occ.  0.00000000
 
ion      s      p      d    tot
    1  0.045  0.070  0.000  0.116
    2  0.045  0.070  0.000  0.116
tot    0.090  0.141  0.000  0.231
 
band     6 # energy    9.67821124 # occ.  0.00000000
 
ion      s      p      d    tot
    1  0.038  0.074  0.000  0.112
    2  0.038  0.074  0.000  0.112
tot    0.076  0.149  0.000  0.225
 
band     7 # energy   10.46711313 # occ.  0.00000000
 
ion      s      p      d    tot
    1  0.053  0.118  0.000  0.171
    2  0.053  0.118  0.000  0.171
tot    0.106  0.236  0.000  0.342
 
band     8 # energy   11.00331512 # occ.  0.00000000
 
ion      s      p      d    tot
    1  0.000  0.127  0.000  0.127
    2  0.000  0.127  0.000  0.127
tot    0.000  0.253  0.000  0.253
 

 k-point     6 :   -0.40000000 0.20000000 0.00000000     weight = 0.19200000

band     1 # energy   -3.53059116 # occ.  2.00000000
 
ion      s      p      d    tot
    1  0.217  0.020  0.000  0.237
    2  0.217  0.020  0.000  0.237
tot    0.435  0.040  0.000  0.474
 
band     2 # energy   -1.00232733 # occ.  2.00000000
 
ion      s      p      d    tot
    1  0.131  0.081  0.000  0.211
    2  0.131  0.081  0.000  0.211
tot    0.261  0.162  0.000  0.423
 
band     3 # energy    2.24774218 # occ.  2.00000000
 
ion      s      p      d    tot
    1  0.035  0.148  0.000  0.183
    2  0.035  0.148  0.000  0.183
tot    0.070  0.297  0.000  0.367
 
band     4 # energy    3.93617112 # occ.  2.00000000
 
ion      s      p      d    tot
    1  0.000  0.205  0.000  0.205
    2  0.000  0.205  0.000  0.205
tot    0.000  0.410  0.000  0.410
 
band     5 # energy    7.66808844 # occ.  0.00000000
 
ion      s      p      d    tot
    1  0.063  0.057  0.000  0.120
    2  0.063  0.057  0.000  0.120
tot    0.126  0.113  0.000  0.240
 
band     6 # energy   10.15507890 # occ.  0.00000000
 
ion      s      p      d    tot
    1  0.056  0.102  0.000  0.158
    2  0.056  0.102  0.000  0.158
tot    0.112  0.203  0.000  0.315
 
band     7 # energy   10.38777021 # occ.  0.00000000
 
ion      s      p      d    tot
    1  0.000  0.111  0.000  0.111
    2  0.000  0.111  0.000  0.111
tot    0.000  0.223  0.000  0.223
 
band     8 # energy   13.10019340 # occ.  0.00000000
 
ion      s      p      d    tot
    1  0.016  0.107  0.000  0.123
    2  0.016  0.107  0.000  0.123
tot    0.031  0.215  0.000  0.246
 

 k-point     7 :   -0.20000000 0.20000000-0.00000000     weight = 0.09600000

band     1 # energy   -4.86781471 # occ.  2.00000000
 
ion      s      p      d    tot
    1  0.208  0.013  0.000  0.221
    2  0.208  0.013  0.000  0.221
tot    0.415  0.026  0.000  0.441
 
band     2 # energy    1.16994207 # occ.  2.00000000
 
ion      s      p      d    tot
    1  0.138  0.097  0.000  0.235
    2  0.138  0.097  0.000  0.235
tot    0.277  0.194  0.000  0.471
 
band     3 # energy    2.68369343 # occ.  2.00000000
 
ion      s      p      d    tot
    1  0.013  0.160  0.000  0.173
    2  0.013  0.160  0.000  0.173
tot    0.026  0.321  0.000  0.347
 
band     4 # energy    4.78468036 # occ.  2.00000000
 
ion      s      p      d    tot
    1  0.000  0.214  0.000  0.214
    2  0.000  0.214  0.000  0.214
tot    0.000  0.429  0.000  0.429
 
band     5 # energy    8.45719743 # occ.  0.00000000
 
ion      s      p      d    tot
    1  0.084  0.082  0.000  0.166
    2  0.084  0.082  0.000  0.166
tot    0.168  0.164  0.000  0.332
 
band     6 # energy    9.57214995 # occ.  0.00000000
 
ion      s      p      d    tot
    1  0.000  0.149  0.000  0.149
    2  0.000  0.149  0.000  0.149
tot    0.000  0.298  0.000  0.298
 
band     7 # energy    9.88050736 # occ.  0.00000000
 
ion      s      p      d    tot
    1  0.031  0.116  0.000  0.147
    2  0.031  0.116  0.000  0.147
tot    0.063  0.231  0.000  0.294
 
band     8 # energy   11.26109656 # occ.  0.00000000
 
ion      s      p      d    tot
    1  0.069  0.100  0.000  0.169
    2  0.069  0.100  0.000  0.169
tot    0.138  0.200  0.000  0.338
 

 k-point     8 :    0.40000000 0.40000000-0.00000000     weight = 0.04800000

band     1 # energy   -3.53005924 # occ.  2.00000000
 
ion      s      p      d    tot
    1  0.199  0.029  0.000  0.228
    2  0.199  0.029  0.000  0.228
tot    0.399  0.057  0.000  0.456
 
band     2 # energy   -0.51930486 # occ.  2.00000000
 
ion      s      p      d    tot
    1  0.184  0.062  0.000  0.246
    2  0.184  0.062  0.000  0.246
tot    0.368  0.124  0.000  0.492
 
band     3 # energy    2.97742030 # occ.  2.00000000
 
ion      s      p      d    tot
    1  0.000  0.195  0.000  0.195
    2  0.000  0.195  0.000  0.195
tot    0.000  0.389  0.000  0.389
 
band     4 # energy    2.97742076 # occ.  2.00000000
 
ion      s      p      d    tot
    1  0.000  0.195  0.000  0.195
    2  0.000  0.195  0.000  0.195
tot    0.000  0.389  0.000  0.389
 
band     5 # energy    6.23053821 # occ.  0.00000000
 
ion      s      p      d    tot
    1  0.052  0.047  0.000  0.099
    2  0.052  0.047  0.000  0.099
tot    0.104  0.095  0.000  0.199
 
band     6 # energy    6.96176336 # occ.  0.00000000
 
ion      s      p      d    tot
    1  0.047  0.032  0.000  0.078
    2  0.047  0.032  0.000  0.078
tot    0.093  0.063  0.000  0.156
 
band     7 # energy   14.00400645 # occ.  0.00000000
 
ion      s      p      d    tot
    1  0.000  0.169  0.000  0.169
    2  0.000  0.169  0.000  0.169
tot    0.000  0.337  0.000  0.337
 
band     8 # energy   14.00400680 # occ.  0.00000000
 
ion      s      p      d    tot
    1  0.000  0.169  0.000  0.169
    2  0.000  0.169  0.000  0.169
tot    0.000  0.337  0.000  0.337
 

 k-point     9 :   -0.40000000 0.40000000-0.00000000     weight = 0.09600000

band     1 # energy   -2.35649956 # occ.  2.00000000
 
ion      s      p      d    tot
    1  0.208  0.035  0.000  0.243
    2  0.208  0.035  0.000  0.243
tot    0.417  0.070  0.000  0.487
 
band     2 # energy   -1.75372318 # occ.  2.00000000
 
ion      s      p      d    tot
    1  0.187  0.050  0.000  0.237
    2  0.187  0.050  0.000  0.237
tot    0.374  0.100  0.000  0.474
 
band     3 # energy    1.64927377 # occ.  2.00000000
 
ion      s      p      d    tot
    1  0.001  0.158  0.000  0.159
    2  0.001  0.158  0.000  0.159
tot    0.001  0.316  0.000  0.317
 
band     4 # energy    3.09320245 # occ.  2.00000000
 
ion      s      p      d    tot
    1  0.000  0.197  0.000  0.197
    2  0.000  0.197  0.000  0.197
tot    0.000  0.393  0.000  0.393
 
band     5 # energy    6.67600184 # occ.  0.00000000
 
ion      s      p      d    tot
    1  0.052  0.040  0.000  0.092
    2  0.052  0.040  0.000  0.092
tot    0.103  0.080  0.000  0.183
 
band     6 # energy    8.75930152 # occ.  0.00000000
 
ion      s      p      d    tot
    1  0.031  0.080  0.000  0.111
    2  0.031  0.080  0.000  0.111
tot    0.062  0.161  0.000  0.222
 
band     7 # energy   13.59850910 # occ.  0.00000000
 
ion      s      p      d    tot
    1  0.000  0.166  0.000  0.166
    2  0.000  0.166  0.000  0.166
tot    0.000  0.332  0.000  0.332
 
band     8 # energy   14.17829017 # occ.  0.00000000
 
ion      s      p      d    tot
    1  0.018  0.119  0.000  0.136
    2  0.041  0.089  0.000  0.130
tot    0.059  0.208  0.000  0.266
 

 k-point    10 :   -0.40000000 0.40000000 0.20000000     weight = 0.19200000

band     1 # energy   -3.10435373 # occ.  2.00000000
 
ion      s      p      d    tot
    1  0.207  0.029  0.000  0.236
    2  0.207  0.029  0.000  0.236
tot    0.414  0.058  0.000  0.472
 
band     2 # energy   -0.89611468 # occ.  2.00000000
 
ion      s      p      d    tot
    1  0.187  0.058  0.000  0.245
    2  0.187  0.058  0.000  0.245
tot    0.374  0.117  0.000  0.490
 
band     3 # energy    1.72924021 # occ.  2.00000000
 
ion      s      p      d    tot
    1  0.007  0.155  0.000  0.162
    2  0.007  0.155  0.000  0.162
tot    0.013  0.310  0.000  0.324
 
band     4 # energy    2.69524462 # occ.  2.00000000
 
ion      s      p      d    tot
    1  0.002  0.172  0.000  0.173
    2  0.002  0.172  0.000  0.173
tot    0.003  0.344  0.000  0.347
 
band     5 # energy    8.99249946 # occ.  0.00000000
 
ion      s      p      d    tot
    1  0.027  0.097  0.000  0.124
    2  0.027  0.097  0.000  0.124
tot    0.054  0.194  0.000  0.248
 
band     6 # energy    9.39153846 # occ.  0.00000000
 
ion      s      p      d    tot
    1  0.009  0.073  0.000  0.082
    2  0.009  0.073  0.000  0.082
tot    0.019  0.145  0.000  0.164
 
band     7 # energy    9.97649010 # occ.  0.00000000
 
ion      s      p      d    tot
    1  0.066  0.098  0.000  0.164
    2  0.066  0.098  0.000  0.164
tot    0.133  0.196  0.000  0.329
 
band     8 # energy   13.30744543 # occ.  0.00000000
 
ion      s      p      d    tot
    1  0.020  0.119  0.000  0.138
    2  0.020  0.119  0.000  0.138
tot    0.039  0.237  0.000  0.276
 
