Job started on p-sc-2047 at Sat Apr 20 16:34:41 EDT 2024
Start: Sat Apr 20 16:34:41 EDT 2024
 running on   32 total cores
 distrk:  each k-point on    8 cores,    4 groups
 distr:  one band on    1 cores,    8 groups
 vasp.6.3.1 04May22 (build Jun 07 2022 20:23:04) complex                        
  
 POSCAR found type information on POSCAR Si
 POSCAR found :  1 types and       2 ions
 Reading from existing POTCAR
 scaLAPACK will be used
 -----------------------------------------------------------------------------
|                                                                             |
|           W    W    AA    RRRRR   N    N  II  N    N   GGGG   !!!           |
|           W    W   A  A   R    R  NN   N  II  NN   N  G    G  !!!           |
|           W    W  A    A  R    R  N N  N  II  N N  N  G       !!!           |
|           W WW W  AAAAAA  RRRRR   N  N N  II  N  N N  G  GGG   !            |
|           WW  WW  A    A  R   R   N   NN  II  N   NN  G    G                |
|           W    W  A    A  R    R  N    N  II  N    N   GGGG   !!!           |
|                                                                             |
|     For optimal performance we recommend to set                             |
|       NCORE = 2 up to number-of-cores-per-socket                            |
|     NCORE specifies how many cores store one orbital (NPAR=cpu/NCORE).      |
|     This setting can greatly improve the performance of VASP for DFT.       |
|     The default, NCORE=1 might be grossly inefficient on modern             |
|     multi-core architectures or massively parallel machines. Do your        |
|     own testing! More info at https://www.vasp.at/wiki/index.php/NCORE      |
|     Unfortunately you need to use the default for GW and RPA                |
|     calculations (for HF NCORE is supported but not extensively tested      |
|     yet).                                                                   |
|                                                                             |
 -----------------------------------------------------------------------------

 Reading from existing POTCAR
 LDA part: xc-table for Pade appr. of Perdew
 POSCAR found type information on POSCAR Si
 POSCAR found :  1 types and       2 ions
 POSCAR, INCAR and KPOINTS ok, starting setup
 FFT: planning ... GRIDC
 FFT: planning ... GRID_SOFT
 FFT: planning ... GRID
 WAVECAR not read
 entering main loop
       N       E                     dE             d eps       ncg     rms          rms(c)
DAV:   1     0.303381738056E+01    0.30338E+01   -0.29205E+03   160   0.627E+02
DAV:   2    -0.107711419908E+02   -0.13805E+02   -0.13683E+02   240   0.724E+01
DAV:   3    -0.109680142833E+02   -0.19687E+00   -0.19687E+00   200   0.109E+01
DAV:   4    -0.109685913616E+02   -0.57708E-03   -0.57707E-03   264   0.665E-01
DAV:   5    -0.109685923149E+02   -0.95324E-06   -0.96315E-06   200   0.211E-02    0.487E+00
DAV:   6    -0.108405345686E+02    0.12806E+00   -0.83152E-02   192   0.151E+00    0.298E+00
DAV:   7    -0.107819159609E+02    0.58619E-01   -0.15950E-01   184   0.224E+00    0.190E-01
DAV:   8    -0.107831934153E+02   -0.12775E-02   -0.42067E-03   176   0.490E-01    0.752E-02
DAV:   9    -0.107834173349E+02   -0.22392E-03   -0.21842E-04   224   0.113E-01    0.572E-02
DAV:  10    -0.107834473317E+02   -0.29997E-04   -0.36710E-05   200   0.453E-02    0.100E-02
DAV:  11    -0.107834469679E+02    0.36378E-06   -0.52946E-07   240   0.516E-03    0.219E-03
DAV:  12    -0.107834472975E+02   -0.32962E-06   -0.60214E-07   192   0.618E-03    0.879E-04
DAV:  13    -0.107834473033E+02   -0.57809E-08   -0.25456E-09   160   0.417E-04
   1 F= -.10783447E+02 E0= -.10783447E+02  d E =-.107834E+02
 curvature:   0.00 expect dE= 0.000E+00 dE for cont linesearch  0.000E+00
 trial: gam= 0.00000 g(F)=  0.118E-45 g(S)=  0.970E-02 ort = 0.000E+00 (trialstep = 0.100E+01)
 search vector abs. value=  0.970E-02
 bond charge predicted
       N       E                     dE             d eps       ncg     rms          rms(c)
DAV:   1    -0.107887960487E+02   -0.53488E-02   -0.14856E-01   168   0.218E+00    0.360E-01
DAV:   2    -0.107863154053E+02    0.24806E-02   -0.21239E-03   208   0.323E-01    0.225E-01
DAV:   3    -0.107849842650E+02    0.13311E-02   -0.27330E-03   176   0.266E-01    0.734E-02
DAV:   4    -0.107849850482E+02   -0.78324E-06   -0.29903E-05   200   0.492E-02    0.647E-02
DAV:   5    -0.107849787367E+02    0.63116E-05   -0.74311E-06   192   0.197E-02    0.117E-02
DAV:   6    -0.107849788292E+02   -0.92522E-07   -0.13329E-07   208   0.286E-03
   2 F= -.10784979E+02 E0= -.10784979E+02  d E =-.153153E-02
 trial-energy change:   -0.001532  1 .order   -0.001659   -0.009702    0.006384
 step:   0.5916(harm=  0.6031)  dis= 0.00000  next Energy=   -10.786291 (dE=-0.284E-02)
 bond charge predicted
       N       E                     dE             d eps       ncg     rms          rms(c)
DAV:   1    -0.107869068532E+02   -0.19281E-02   -0.25076E-02   168   0.902E-01    0.151E-01
DAV:   2    -0.107864961347E+02    0.41072E-03   -0.36282E-04   216   0.133E-01    0.935E-02
DAV:   3    -0.107862830755E+02    0.21306E-03   -0.45792E-04   184   0.109E-01    0.309E-02
DAV:   4    -0.107862839486E+02   -0.87315E-06   -0.50100E-06   216   0.201E-02    0.273E-02
DAV:   5    -0.107862860553E+02   -0.21067E-05   -0.12442E-06   200   0.804E-03    0.577E-03
DAV:   6    -0.107862860311E+02    0.24191E-07   -0.14597E-08   160   0.108E-03
   3 F= -.10786286E+02 E0= -.10786286E+02  d E =-.283873E-02
 curvature:  -0.30 expect dE=-0.352E-07 dE for cont linesearch -0.352E-07
 trial: gam=-0.00346 g(F)=  0.385E-47 g(S)=  0.117E-06 ort = 0.337E-04 (trialstep = 0.918E+00)
 search vector abs. value=  0.101E-09
 reached required accuracy - stopping structural energy minimisation
End: Sat Apr 20 16:34:44 EDT 2024
