<?xml version="1.0" encoding="ISO-8859-1"?>
<modeling>
 <generator>
  <i name="program" type="string">vasp </i>
  <i name="version" type="string">6.3.1  </i>
  <i name="subversion" type="string">04May22 (build Jun 07 2022 20:23:04) complex                          parallel </i>
  <i name="platform" type="string">LinuxIFC </i>
  <i name="date" type="string">2024 04 20 </i>
  <i name="time" type="string">16:34:42 </i>
 </generator>
 <incar>
  <i type="string" name="PREC">Normal</i>
  <i type="string" name="ALGO">Normal</i>
  <i type="int" name="NELM">   100</i>
  <i type="int" name="IBRION">     2</i>
  <i name="EDIFF">      0.00000010</i>
  <i name="EDIFFG">     -0.00500000</i>
  <i type="int" name="NSW">    20</i>
  <i type="int" name="ISIF">     3</i>
  <i name="ENCUT">    400.00000000</i>
  <i type="logical" name="LREAL"> F  </i>
  <i type="int" name="ISMEAR">    -5</i>
  <i name="SIGMA">      0.10000000</i>
  <i type="logical" name="LWAVE"> F  </i>
  <i type="logical" name="LCHARG"> F  </i>
  <i type="int" name="LORBIT">    10</i>
  <i type="logical" name="LASPH"> T  </i>
 </incar>
 <primitive_cell>
  <structure name="primitive_cell" >
   <crystal>
    <varray name="basis" >
     <v>       0.00000000       2.72185119       2.72185119 </v>
     <v>       2.72185119       0.00000000       2.72185119 </v>
     <v>       2.72185119       2.72185119       0.00000000 </v>
    </varray>
    <i name="volume">     40.32952685 </i>
    <varray name="rec_basis" >
     <v>      -0.18369851       0.18369851       0.18369851 </v>
     <v>       0.18369851      -0.18369851       0.18369851 </v>
     <v>       0.18369851       0.18369851      -0.18369851 </v>
    </varray>
   </crystal>
   <varray name="positions" >
    <v>       0.25000000       0.25000000       0.25000000 </v>
    <v>       0.00000000       0.00000000       0.00000000 </v>
   </varray>
  </structure>
  <varray name="primitive_index" >
   <v type="int" >        1 </v>
   <v type="int" >        2 </v>
  </varray>
 </primitive_cell>
 <kpoints>
  <generation param="Gamma">
   <v type="int" name="divisions">       5        5        5 </v>
   <v name="usershift">      0.00000000       0.00000000       0.00000000 </v>
   <v name="genvec1">      0.20000000       0.00000000      -0.00000000 </v>
   <v name="genvec2">      0.00000000       0.20000000       0.00000000 </v>
   <v name="genvec3">     -0.00000000      -0.00000000       0.20000000 </v>
   <v name="shift">      0.00000000       0.00000000       0.00000000 </v>
  </generation>
  <varray name="kpointlist" >
   <v>       0.00000000       0.00000000       0.00000000 </v>
   <v>       0.20000000      -0.00000000      -0.00000000 </v>
   <v>       0.40000000      -0.00000000      -0.00000000 </v>
   <v>       0.20000000       0.20000000      -0.00000000 </v>
   <v>       0.40000000       0.20000000      -0.00000000 </v>
   <v>      -0.40000000       0.20000000       0.00000000 </v>
   <v>      -0.20000000       0.20000000      -0.00000000 </v>
   <v>       0.40000000       0.40000000      -0.00000000 </v>
   <v>      -0.40000000       0.40000000      -0.00000000 </v>
   <v>      -0.40000000       0.40000000       0.20000000 </v>
  </varray>
  <varray name="weights" >
   <v>       0.00800000 </v>
   <v>       0.06400000 </v>
   <v>       0.06400000 </v>
   <v>       0.04800000 </v>
   <v>       0.19200000 </v>
   <v>       0.19200000 </v>
   <v>       0.09600000 </v>
   <v>       0.04800000 </v>
   <v>       0.09600000 </v>
   <v>       0.19200000 </v>
  </varray>
  <varray name="tetrahedronlist"  type="int" >
   <v type="int" >       48        2        3        5        7 </v>
   <v type="int" >       48        5        6        7       10 </v>
   <v type="int" >       24        6        6        7       10 </v>
   <v type="int" >       48        3        5        6        7 </v>
   <v type="int" >       48        6        9       10       10 </v>
   <v type="int" >       48        5        6        9       10 </v>
   <v type="int" >       24        6        6        9       10 </v>
   <v type="int" >       24        5        5        8       10 </v>
   <v type="int" >       24        4        5        5        8 </v>
   <v type="int" >       48        5        8        9       10 </v>
   <v type="int" >       24        4        5        5        7 </v>
   <v type="int" >       48        2        4        5        7 </v>
   <v type="int" >       48        5        6        6       10 </v>
   <v type="int" >       48        3        5        6        6 </v>
   <v type="int" >       24        9       10       10       10 </v>
   <v type="int" >        6       10       10       10       10 </v>
   <v type="int" >       24        6        6       10       10 </v>
   <v type="int" >       12        9        9       10       10 </v>
   <v type="int" >       24        8        9        9       10 </v>
   <v type="int" >       24        5        5        7       10 </v>
   <v type="int" >       24        2        2        4        7 </v>
   <v type="int" >       24        3        3        6        6 </v>
   <v type="int" >       12        8        8        9        9 </v>
   <v type="int" >       24        1        2        2        4 </v>
  </varray>
  <i name="volumeweight">      0.00133333 </i>
 </kpoints>
 <parameters>
  <separator name="general" >
   <i type="string" name="SYSTEM">unknown system</i>
   <i type="logical" name="LCOMPAT"> F  </i>
  </separator>
  <separator name="electronic" >
   <i type="string" name="PREC">normal</i>
   <i name="ENMAX">    400.00000000</i>
   <i name="ENAUG">    322.06900000</i>
   <i name="EDIFF">      0.00000010</i>
   <i type="int" name="IALGO">    38</i>
   <i type="int" name="IWAVPR">    11</i>
   <i type="int" name="NBANDS">     8</i>
   <i type="int" name="NBANDSLOW">    -1</i>
   <i type="int" name="NBANDSHIGH">    -1</i>
   <i name="NELECT">      8.00000000</i>
   <i type="int" name="TURBO">     0</i>
   <i type="int" name="IRESTART">     0</i>
   <i type="int" name="NREBOOT">     0</i>
   <i type="int" name="NMIN">     0</i>
   <i name="EREF">      0.00000000</i>
   <separator name="electronic smearing" >
    <i type="int" name="ISMEAR">    -5</i>
    <i name="SIGMA">      0.10000000</i>
    <i name="KSPACING">      0.50000000</i>
    <i type="logical" name="KGAMMA"> T  </i>
    <i type="logical" name="KBLOWUP"> T  </i>
   </separator>
   <separator name="electronic projectors" >
    <i type="logical" name="LREAL"> F  </i>
    <v name="ROPT">      0.00000000</v>
    <i type="int" name="LMAXPAW">  -100</i>
    <i type="int" name="LMAXMIX">     2</i>
    <i type="logical" name="NLSPLINE"> F  </i>
   </separator>
   <separator name="electronic startup" >
    <i type="int" name="ISTART">     0</i>
    <i type="int" name="ICHARG">     2</i>
    <i type="int" name="INIWAV">     1</i>
   </separator>
   <separator name="electronic spin" >
    <i type="int" name="ISPIN">     1</i>
    <i type="logical" name="LNONCOLLINEAR"> F  </i>
    <v name="MAGMOM">      1.00000000      1.00000000</v>
    <i name="NUPDOWN">     -1.00000000</i>
    <i type="logical" name="LSORBIT"> F  </i>
    <v name="SAXIS">      0.00000000      0.00000000      1.00000000</v>
    <i type="logical" name="LSPIRAL"> F  </i>
    <v name="QSPIRAL">      0.00000000      0.00000000      0.00000000</v>
    <i type="logical" name="LZEROZ"> F  </i>
   </separator>
   <separator name="electronic exchange-correlation" >
    <i type="logical" name="LASPH"> T  </i>
    <i type="logical" name="LMETAGGA"> F  </i>
   </separator>
   <separator name="electronic convergence" >
    <i type="int" name="NELM">   100</i>
    <i type="int" name="NELMDL">    -5</i>
    <i type="int" name="NELMIN">     2</i>
    <i name="ENINI">    400.00000000</i>
    <separator name="electronic convergence detail" >
     <i type="logical" name="LDIAG"> T  </i>
     <i type="logical" name="LSUBROT"> F  </i>
     <i name="WEIMIN">      0.00100000</i>
     <i name="EBREAK">      0.00000000</i>
     <i name="DEPER">      0.30000000</i>
     <i type="int" name="NRMM">     4</i>
     <i name="TIME">      0.40000000</i>
    </separator>
   </separator>
   <separator name="electronic mixer" >
    <i name="AMIX">      0.40000000</i>
    <i name="BMIX">      1.00000000</i>
    <i name="AMIN">      0.10000000</i>
    <i name="AMIX_MAG">      1.60000000</i>
    <i name="BMIX_MAG">      1.00000000</i>
    <separator name="electronic mixer details" >
     <i type="int" name="IMIX">     4</i>
     <i type="logical" name="MIXFIRST"> F  </i>
     <i type="int" name="MAXMIX">   -45</i>
     <i name="WC">    100.00000000</i>
     <i type="int" name="INIMIX">     1</i>
     <i type="int" name="MIXPRE">     1</i>
     <i type="int" name="MREMOVE">     5</i>
    </separator>
   </separator>
   <separator name="electronic dipolcorrection" >
    <i type="logical" name="LDIPOL"> F  </i>
    <i type="logical" name="LMONO"> F  </i>
    <i type="int" name="IDIPOL">     0</i>
    <i name="EPSILON">      1.00000000</i>
    <v name="DIPOL">   -100.00000000   -100.00000000   -100.00000000</v>
    <i name="EFIELD">      0.00000000</i>
   </separator>
  </separator>
  <separator name="grids" >
   <i type="int" name="NGX">    20</i>
   <i type="int" name="NGY">    20</i>
   <i type="int" name="NGZ">    20</i>
   <i type="int" name="NGXF">    40</i>
   <i type="int" name="NGYF">    40</i>
   <i type="int" name="NGZF">    40</i>
   <i type="logical" name="ADDGRID"> F  </i>
  </separator>
  <separator name="ionic" >
   <i type="int" name="NSW">    20</i>
   <i type="int" name="IBRION">     2</i>
   <i type="int" name="MDALGO">     0</i>
   <i type="int" name="ISIF">     3</i>
   <i name="PSTRESS">      0.00000000</i>
   <i name="EDIFFG">     -0.00500000</i>
   <i type="int" name="NFREE">     1</i>
   <i name="POTIM">      0.50000000</i>
   <i name="SMASS">     -3.00000000</i>
   <i name="SCALEE">      1.00000000</i>
  </separator>
  <separator name="ionic md" >
   <i name="TEBEG">      0.00010000</i>
   <i name="TEEND">      0.00010000</i>
   <i type="int" name="NBLOCK">     1</i>
   <i type="int" name="KBLOCK">    20</i>
   <i type="int" name="NPACO">   256</i>
   <i name="APACO">     10.00000000</i>
  </separator>
  <separator name="symmetry" >
   <i type="int" name="ISYM">     2</i>
   <i name="SYMPREC">      0.00001000</i>
  </separator>
  <separator name="dos" >
   <i type="int" name="LORBIT">    10</i>
   <v name="RWIGS">     -1.00000000</v>
   <i type="int" name="NEDOS">   301</i>
   <i name="EMIN">     10.00000000</i>
   <i name="EMAX">    -10.00000000</i>
   <i name="EFERMI">      0.00000000</i>
  </separator>
  <separator name="writing" >
   <i type="int" name="NWRITE">     2</i>
   <i type="logical" name="LWAVE"> F  </i>
   <i type="logical" name="LDOWNSAMPLE"> F  </i>
   <i type="logical" name="LCHARG"> F  </i>
   <i type="logical" name="LPARD"> F  </i>
   <i type="logical" name="LVTOT"> F  </i>
   <i type="logical" name="LVHAR"> F  </i>
   <i type="logical" name="LELF"> F  </i>
   <i type="logical" name="LOPTICS"> F  </i>
   <v name="STM">      0.00000000      0.00000000      0.00000000      0.00000000      0.00000000      0.00000000      0.00000000</v>
  </separator>
  <separator name="performance" >
   <i type="int" name="NPAR">     8</i>
   <i type="int" name="NSIM">     4</i>
   <i type="int" name="NBLK">    -1</i>
   <i type="logical" name="LPLANE"> T  </i>
   <i type="logical" name="LSCALAPACK"> T  </i>
   <i type="logical" name="LSCAAWARE"> F  </i>
   <i type="logical" name="LSCALU"> F  </i>
   <i type="logical" name="LASYNC"> F  </i>
   <i type="logical" name="LORBITALREAL"> F  </i>
  </separator>
  <separator name="miscellaneous" >
   <i type="int" name="IDIOT">     3</i>
   <i type="int" name="PHON_NSTRUCT">    -1</i>
   <i type="logical" name="LMUSIC"> F  </i>
   <v name="POMASS">     28.08500000</v>
   <v name="DARWINR">      0.00000000</v>
   <v name="DARWINV">      1.00000000</v>
   <i type="logical" name="LCORR"> T  </i>
  </separator>
  <i type="logical" name="GGA_COMPAT"> T  </i>
  <i type="logical" name="LBERRY"> F  </i>
  <i type="int" name="ICORELEVEL">     0</i>
  <i type="logical" name="LDAU"> F  </i>
  <i type="int" name="I_CONSTRAINED_M">     0</i>
  <separator name="electronic exchange-correlation" >
   <i type="string" name="GGA">--</i>
   <i type="int" name="VOSKOWN">     0</i>
   <i type="logical" name="LHFCALC"> F  </i>
   <i type="string" name="PRECFOCK"></i>
   <i type="logical" name="LSYMGRAD"> F  </i>
   <i type="logical" name="LHFONE"> F  </i>
   <i type="logical" name="LRHFCALC"> F  </i>
   <i type="logical" name="LTHOMAS"> F  </i>
   <i type="logical" name="LMODELHF"> F  </i>
   <i type="logical" name="LFOCKACE"> F  </i>
   <i name="ENCUT4O">     -1.00000000</i>
   <i type="int" name="EXXOEP">     0</i>
   <i type="int" name="FOURORBIT">     0</i>
   <i name="AEXX">      0.00000000</i>
   <i name="HFALPHA">      0.00000000</i>
   <i name="MCALPHA">      0.00000000</i>
   <i name="ALDAX">      1.00000000</i>
   <i name="AGGAX">      1.00000000</i>
   <i name="ALDAC">      1.00000000</i>
   <i name="AGGAC">      1.00000000</i>
   <i type="int" name="NKREDX">     1</i>
   <i type="int" name="NKREDY">     1</i>
   <i type="int" name="NKREDZ">     1</i>
   <i type="logical" name="SHIFTRED"> F  </i>
   <i type="logical" name="ODDONLY"> F  </i>
   <i type="logical" name="EVENONLY"> F  </i>
   <i type="int" name="LMAXFOCK">     0</i>
   <i type="int" name="NMAXFOCKAE">     0</i>
   <i type="logical" name="LFOCKAEDFT"> F  </i>
   <i name="HFSCREEN">      0.00000000</i>
   <i name="HFSCREENC">      0.00000000</i>
   <i type="int" name="NBANDSGWLOW">     0</i>
  </separator>
  <separator name="vdW DFT" >
   <i type="logical" name="LUSE_VDW"> F  </i>
   <i name="Zab_VDW">     -0.84910000</i>
   <i name="PARAM1">      0.12340000</i>
   <i name="PARAM2">      1.00000000</i>
   <i name="PARAM3">      0.00000000</i>
  </separator>
  <separator name="model GW" >
   <i type="int" name="MODEL_GW">     0</i>
   <i name="MODEL_EPS0">     12.09885805</i>
   <i name="MODEL_ALPHA">      1.00000000</i>
  </separator>
  <separator name="linear response parameters" >
   <i type="logical" name="LEPSILON"> F  </i>
   <i type="logical" name="LRPA"> F  </i>
   <i type="logical" name="LNABLA"> F  </i>
   <i type="logical" name="LVEL"> F  </i>
   <i name="CSHIFT">      0.10000000</i>
   <i name="OMEGAMAX">     -1.00000000</i>
   <i name="DEG_THRESHOLD">      0.00200000</i>
   <i name="RTIME">     -0.10000000</i>
   <i name="WPLASMAI">      0.00000000</i>
   <v name="DFIELD">      0.00000000      0.00000000      0.00000000</v>
   <v name="WPLASMA">      0.00000000      0.00000000      0.00000000      0.00000000      0.00000000      0.00000000      0.00000000      0.00000000      0.00000000</v>
  </separator>
  <separator name="orbital magnetization" >
   <i type="logical" name="NUCIND"> F  </i>
   <v name="MAGPOS">      0.00000000      0.00000000      0.00000000</v>
   <i type="logical" name="LNICSALL"> T  </i>
   <i type="logical" name="ORBITALMAG"> F  </i>
   <i type="logical" name="LMAGBLOCH"> F  </i>
   <i type="logical" name="LCHIMAG"> F  </i>
   <i type="logical" name="LGAUGE"> T  </i>
   <i type="int" name="MAGATOM">     0</i>
   <v name="MAGDIPOL">      0.00000000      0.00000000      0.00000000</v>
   <v name="AVECCONST">      0.00000000      0.00000000      0.00000000</v>
  </separator>
  <separator name="response functions" >
   <i type="logical" name="LFINITE_TEMPERATURE"> F  </i>
   <i type="logical" name="LADDER"> F  </i>
   <i type="logical" name="LRPAFORCE"> F  </i>
   <i type="logical" name="LFXC"> F  </i>
   <i type="logical" name="LHARTREE"> T  </i>
   <i type="int" name="IBSE">     0</i>
   <v type="int" name="KPOINT">    -1     0     0     0</v>
   <i type="logical" name="LTCTC"> F  </i>
   <i type="logical" name="LTCTE"> F  </i>
   <i type="logical" name="LTETE"> F  </i>
   <i type="logical" name="LTRIPLET"> F  </i>
   <i type="logical" name="LFXCEPS"> F  </i>
   <i type="logical" name="LFXHEG"> F  </i>
   <i type="int" name="NATURALO">     2</i>
   <i type="logical" name="LHOLEGF"> F  </i>
   <i type="logical" name="L2ORDER"> F  </i>
   <i type="logical" name="LDMP1"> F  </i>
   <i type="logical" name="LMP2LT"> F  </i>
   <i type="logical" name="LSMP2LT"> F  </i>
   <i type="logical" name="LGWLF"> F  </i>
   <i name="ENCUTGW">     -2.00000000</i>
   <i name="ENCUTGWSOFT">     -2.00000000</i>
   <i name="ENCUTLF">     -1.00000000</i>
   <i type="logical" name="LESF_SPLINES"> F  </i>
   <i type="int" name="LMAXMP2">    -1</i>
   <i name="SCISSOR">      0.00000000</i>
   <i type="int" name="NOMEGA">     0</i>
   <i type="int" name="NOMEGAR">     0</i>
   <i type="int" name="NBANDSGW">    -1</i>
   <i type="int" name="NBANDSO">    -1</i>
   <i type="int" name="NBANDSV">    -1</i>
   <i type="int" name="NELMGW">     1</i>
   <i type="int" name="NELMHF">     1</i>
   <i type="int" name="DIM">     3</i>
   <i type="int" name="IESPILON">     4</i>
   <i type="int" name="ANTIRES">     0</i>
   <i name="OMEGAMAX">    -30.00000000</i>
   <i name="OMEGAMIN">    -30.00000000</i>
   <i name="OMEGATL">   -200.00000000</i>
   <i type="int" name="OMEGAGRID">     0</i>
   <i name="CSHIFT">     -0.10000000</i>
   <i type="logical" name="LSELFENERGY"> F  </i>
   <i type="logical" name="LSPECTRAL"> F  </i>
   <i type="logical" name="LSPECTRALGW"> F  </i>
   <i type="logical" name="LSINGLES"> F  </i>
   <i type="logical" name="LFERMIGW"> F  </i>
   <i type="logical" name="ODDONLYGW"> F  </i>
   <i type="logical" name="EVENONLYGW"> F  </i>
   <i type="int" name="NKREDLFX">     1</i>
   <i type="int" name="NKREDLFY">     1</i>
   <i type="int" name="NKREDLFZ">     1</i>
   <i type="int" name="MAXMEM">  2800</i>
   <i type="int" name="TELESCOPE">     0</i>
   <i type="int" name="NTAUPAR">    -1</i>
   <i type="int" name="NOMEGAPAR">    -1</i>
   <i name="DAMP_NEWTON">      0.80000001</i>
   <i name="LAMBDA">      1.00000000</i>
  </separator>
  <separator name="External order field" >
   <i name="OFIELD_KAPPA">      0.00000000</i>
   <v name="OFIELD_K">      0.00000000      0.00000000      0.00000000</v>
   <i name="OFIELD_Q6_NEAR">      0.00000000</i>
   <i name="OFIELD_Q6_FAR">      0.00000000</i>
   <i name="OFIELD_A">      0.00000000</i>
  </separator>
  <separator name="optional k-points parameters" >
   <i type="int" name="KPOINTS_OPT_MODE">     1</i>
   <i type="logical" name="LKPOINTS_OPT"> F  </i>
  </separator>
 </parameters>
 <atominfo>
  <atoms>       2 </atoms>
  <types>       1 </types>
  <array name="atoms" >
   <dimension dim="1">ion</dimension>
   <field type="string">element</field>
   <field type="int">atomtype</field>
   <set>
    <rc><c>Si</c><c>   1</c></rc>
    <rc><c>Si</c><c>   1</c></rc>
   </set>
  </array>
  <array name="atomtypes" >
   <dimension dim="1">type</dimension>
   <field type="int">atomspertype</field>
   <field type="string">element</field>
   <field>mass</field>
   <field>valence</field>
   <field type="string">pseudopotential</field>
   <set>
    <rc><c>   2</c><c>Si</c><c>     28.08500000</c><c>      4.00000000</c><c>  PAW_PBE Si 05Jan2001                  </c></rc>
   </set>
  </array>
 </atominfo>
 <structure name="initialpos" >
  <crystal>
   <varray name="basis" >
    <v>       0.00000000       2.72185119       2.72185119 </v>
    <v>       2.72185119       0.00000000       2.72185119 </v>
    <v>       2.72185119       2.72185119       0.00000000 </v>
   </varray>
   <i name="volume">     40.32952685 </i>
   <varray name="rec_basis" >
    <v>      -0.18369851       0.18369851       0.18369851 </v>
    <v>       0.18369851      -0.18369851       0.18369851 </v>
    <v>       0.18369851       0.18369851      -0.18369851 </v>
   </varray>
  </crystal>
  <varray name="positions" >
   <v>       0.25000000       0.25000000       0.25000000 </v>
   <v>       0.00000000       0.00000000       0.00000000 </v>
  </varray>
 </structure>
 <calculation>
  <scstep>
   <time name="dav">    0.00    0.00</time>
   <time name="total">    0.05    0.05</time>
   <energy>
    <i name="alphaZ">      3.33880741 </i>
    <i name="ewald">   -227.98820643 </i>
    <i name="hartreedc">    -11.11484531 </i>
    <i name="XCdc">    -18.63153109 </i>
    <i name="pawpsdc">    176.24759923 </i>
    <i name="pawaedc">   -141.06103558 </i>
    <i name="eentropy">      0.00000000 </i>
    <i name="bandstr">     16.11153669 </i>
    <i name="atom">    206.13149246 </i>
    <i name="e_fr_energy">      3.03381738 </i>
    <i name="e_wo_entrp">      3.03381738 </i>
    <i name="e_0_energy">      3.03381738 </i>
   </energy>
  </scstep>
  <scstep>
   <time name="dav">    0.01    0.01</time>
   <time name="total">    0.01    0.01</time>
   <energy>
    <i name="e_fr_energy">    -10.77114199 </i>
    <i name="e_wo_entrp">    -10.77114199 </i>
    <i name="e_0_energy">    -10.77114199 </i>
   </energy>
  </scstep>
  <scstep>
   <time name="dav">    0.00    0.00</time>
   <time name="total">    0.00    0.00</time>
   <energy>
    <i name="e_fr_energy">    -10.96801428 </i>
    <i name="e_wo_entrp">    -10.96801428 </i>
    <i name="e_0_energy">    -10.96801428 </i>
   </energy>
  </scstep>
  <scstep>
   <time name="dav">    0.01    0.01</time>
   <time name="total">    0.01    0.01</time>
   <energy>
    <i name="e_fr_energy">    -10.96859136 </i>
    <i name="e_wo_entrp">    -10.96859136 </i>
    <i name="e_0_energy">    -10.96859136 </i>
   </energy>
  </scstep>
  <scstep>
   <time name="dav">    0.00    0.00</time>
   <time name="total">    0.01    0.01</time>
   <energy>
    <i name="e_fr_energy">    -10.96859231 </i>
    <i name="e_wo_entrp">    -10.96859231 </i>
    <i name="e_0_energy">    -10.96859231 </i>
   </energy>
  </scstep>
  <scstep>
   <time name="dav">    0.00    0.00</time>
   <time name="total">    0.04    0.05</time>
   <energy>
    <i name="e_fr_energy">    -10.84053457 </i>
    <i name="e_wo_entrp">    -10.84053457 </i>
    <i name="e_0_energy">    -10.84053457 </i>
   </energy>
  </scstep>
  <scstep>
   <time name="dav">    0.00    0.00</time>
   <time name="total">    0.04    0.04</time>
   <energy>
    <i name="e_fr_energy">    -10.78191596 </i>
    <i name="e_wo_entrp">    -10.78191596 </i>
    <i name="e_0_energy">    -10.78191596 </i>
   </energy>
  </scstep>
  <scstep>
   <time name="dav">    0.00    0.00</time>
   <time name="total">    0.05    0.05</time>
   <energy>
    <i name="e_fr_energy">    -10.78319342 </i>
    <i name="e_wo_entrp">    -10.78319342 </i>
    <i name="e_0_energy">    -10.78319342 </i>
   </energy>
  </scstep>
  <scstep>
   <time name="dav">    0.01    0.01</time>
   <time name="total">    0.05    0.05</time>
   <energy>
    <i name="e_fr_energy">    -10.78341733 </i>
    <i name="e_wo_entrp">    -10.78341733 </i>
    <i name="e_0_energy">    -10.78341733 </i>
   </energy>
  </scstep>
  <scstep>
   <time name="dav">    0.00    0.00</time>
   <time name="total">    0.05    0.05</time>
   <energy>
    <i name="e_fr_energy">    -10.78344733 </i>
    <i name="e_wo_entrp">    -10.78344733 </i>
    <i name="e_0_energy">    -10.78344733 </i>
   </energy>
  </scstep>
  <scstep>
   <time name="dav">    0.01    0.01</time>
   <time name="total">    0.05    0.05</time>
   <energy>
    <i name="e_fr_energy">    -10.78344697 </i>
    <i name="e_wo_entrp">    -10.78344697 </i>
    <i name="e_0_energy">    -10.78344697 </i>
   </energy>
  </scstep>
  <scstep>
   <time name="dav">    0.00    0.00</time>
   <time name="total">    0.05    0.05</time>
   <energy>
    <i name="e_fr_energy">    -10.78344730 </i>
    <i name="e_wo_entrp">    -10.78344730 </i>
    <i name="e_0_energy">    -10.78344730 </i>
   </energy>
  </scstep>
  <scstep>
   <time name="dav">    0.01    0.01</time>
   <time name="total">    0.04    0.04</time>
   <energy>
    <i name="alphaZ">      3.33880741 </i>
    <i name="ewald">   -227.98820643 </i>
    <i name="hartreedc">    -15.14610930 </i>
    <i name="XCdc">    -17.97906421 </i>
    <i name="pawpsdc">    860.34131987 </i>
    <i name="pawaedc">   -825.37593314 </i>
    <i name="eentropy">      0.00000000 </i>
    <i name="bandstr">      5.89424603 </i>
    <i name="atom">    206.13149246 </i>
    <i name="e_fr_energy">    -10.78344730 </i>
    <i name="e_wo_entrp">    -10.78344730 </i>
    <i name="e_0_energy">    -10.78344730 </i>
   </energy>
  </scstep>
  <structure>
   <crystal>
    <varray name="basis" >
     <v>       0.00000000       2.72185119       2.72185119 </v>
     <v>       2.72185119       0.00000000       2.72185119 </v>
     <v>       2.72185119       2.72185119       0.00000000 </v>
    </varray>
    <i name="volume">     40.32952685 </i>
    <varray name="rec_basis" >
     <v>      -0.18369851       0.18369851       0.18369851 </v>
     <v>       0.18369851      -0.18369851       0.18369851 </v>
     <v>       0.18369851       0.18369851      -0.18369851 </v>
    </varray>
   </crystal>
   <varray name="positions" >
    <v>       0.25000000       0.25000000       0.25000000 </v>
    <v>       0.00000000       0.00000000       0.00000000 </v>
   </varray>
  </structure>
  <varray name="forces" >
   <v>      -0.00000000      -0.00000000      -0.00000000 </v>
   <v>       0.00000000       0.00000000       0.00000000 </v>
  </varray>
  <varray name="stress" >
   <v>      14.54643241      -0.00000000       0.00000000 </v>
   <v>      -0.00000000      14.54643241      -0.00000000 </v>
   <v>       0.00000000       0.00000000      14.54643241 </v>
  </varray>
  <energy>
   <i name="e_fr_energy">    -10.78344730 </i>
   <i name="e_wo_entrp">    -10.78344730 </i>
   <i name="e_0_energy">    -10.78344730 </i>
  </energy>
  <time name="totalsc">    0.53    0.54</time>
 </calculation>
 <calculation>
  <scstep>
   <time name="dav">    0.00    0.00</time>
   <time name="total">    0.04    0.04</time>
   <energy>
    <i name="alphaZ">      3.25188012 </i>
    <i name="ewald">   -225.99219203 </i>
    <i name="hartreedc">    -15.01347729 </i>
    <i name="XCdc">    -18.10816037 </i>
    <i name="pawpsdc">    860.39195834 </i>
    <i name="pawaedc">   -825.42657089 </i>
    <i name="eentropy">      0.00000000 </i>
    <i name="bandstr">      3.97627361 </i>
    <i name="atom">    206.13149246 </i>
    <i name="e_fr_energy">    -10.78879605 </i>
    <i name="e_wo_entrp">    -10.78879605 </i>
    <i name="e_0_energy">    -10.78879605 </i>
   </energy>
  </scstep>
  <scstep>
   <time name="dav">    0.01    0.01</time>
   <time name="total">    0.05    0.05</time>
   <energy>
    <i name="e_fr_energy">    -10.78631541 </i>
    <i name="e_wo_entrp">    -10.78631541 </i>
    <i name="e_0_energy">    -10.78631541 </i>
   </energy>
  </scstep>
  <scstep>
   <time name="dav">    0.00    0.00</time>
   <time name="total">    0.05    0.05</time>
   <energy>
    <i name="e_fr_energy">    -10.78498426 </i>
    <i name="e_wo_entrp">    -10.78498426 </i>
    <i name="e_0_energy">    -10.78498426 </i>
   </energy>
  </scstep>
  <scstep>
   <time name="dav">    0.00    0.01</time>
   <time name="total">    0.05    0.05</time>
   <energy>
    <i name="e_fr_energy">    -10.78498505 </i>
    <i name="e_wo_entrp">    -10.78498505 </i>
    <i name="e_0_energy">    -10.78498505 </i>
   </energy>
  </scstep>
  <scstep>
   <time name="dav">    0.00    0.00</time>
   <time name="total">    0.05    0.05</time>
   <energy>
    <i name="e_fr_energy">    -10.78497874 </i>
    <i name="e_wo_entrp">    -10.78497874 </i>
    <i name="e_0_energy">    -10.78497874 </i>
   </energy>
  </scstep>
  <scstep>
   <time name="dav">    0.00    0.00</time>
   <time name="total">    0.04    0.04</time>
   <energy>
    <i name="alphaZ">      3.25188012 </i>
    <i name="ewald">   -225.99219203 </i>
    <i name="hartreedc">    -15.45975594 </i>
    <i name="XCdc">    -18.09933900 </i>
    <i name="pawpsdc">    812.86428161 </i>
    <i name="pawaedc">   -777.87583352 </i>
    <i name="eentropy">      0.00000000 </i>
    <i name="bandstr">      4.39448748 </i>
    <i name="atom">    206.13149246 </i>
    <i name="e_fr_energy">    -10.78497883 </i>
    <i name="e_wo_entrp">    -10.78497883 </i>
    <i name="e_0_energy">    -10.78497883 </i>
   </energy>
  </scstep>
  <structure>
   <crystal>
    <varray name="basis" >
     <v>       0.00000000       2.74589119       2.74589119 </v>
     <v>       2.74589119      -0.00000000       2.74589119 </v>
     <v>       2.74589119       2.74589119       0.00000000 </v>
    </varray>
    <i name="volume">     41.40759138 </i>
    <varray name="rec_basis" >
     <v>      -0.18209024       0.18209024       0.18209024 </v>
     <v>       0.18209024      -0.18209024       0.18209024 </v>
     <v>       0.18209024       0.18209024      -0.18209024 </v>
    </varray>
   </crystal>
   <varray name="positions" >
    <v>       0.25000000       0.25000000       0.25000000 </v>
    <v>       0.00000000       0.00000000       0.00000000 </v>
   </varray>
  </structure>
  <varray name="forces" >
   <v>       0.00000000       0.00000000       0.00000000 </v>
   <v>      -0.00000000      -0.00000000      -0.00000000 </v>
  </varray>
  <varray name="stress" >
   <v>      -9.32287705       0.00000000      -0.00000000 </v>
   <v>      -0.00000000      -9.32287705      -0.00000000 </v>
   <v>      -0.00000000       0.00000000      -9.32287705 </v>
  </varray>
  <energy>
   <i name="e_fr_energy">    -10.78497883 </i>
   <i name="e_wo_entrp">    -10.78497883 </i>
   <i name="e_0_energy">    -10.78497883 </i>
  </energy>
  <time name="totalsc">    0.37    0.38</time>
 </calculation>
 <calculation>
  <scstep>
   <time name="dav">    0.00    0.00</time>
   <time name="total">    0.04    0.04</time>
   <energy>
    <i name="alphaZ">      3.28700818 </i>
    <i name="ewald">   -226.80303095 </i>
    <i name="hartreedc">    -15.51605051 </i>
    <i name="XCdc">    -18.04710018 </i>
    <i name="pawpsdc">    810.95448984 </i>
    <i name="pawaedc">   -775.96618067 </i>
    <i name="eentropy">      0.00000000 </i>
    <i name="bandstr">      5.17246498 </i>
    <i name="atom">    206.13149246 </i>
    <i name="e_fr_energy">    -10.78690685 </i>
    <i name="e_wo_entrp">    -10.78690685 </i>
    <i name="e_0_energy">    -10.78690685 </i>
   </energy>
  </scstep>
  <scstep>
   <time name="dav">    0.01    0.01</time>
   <time name="total">    0.05    0.05</time>
   <energy>
    <i name="e_fr_energy">    -10.78649613 </i>
    <i name="e_wo_entrp">    -10.78649613 </i>
    <i name="e_0_energy">    -10.78649613 </i>
   </energy>
  </scstep>
  <scstep>
   <time name="dav">    0.00    0.00</time>
   <time name="total">    0.04    0.05</time>
   <energy>
    <i name="e_fr_energy">    -10.78628308 </i>
    <i name="e_wo_entrp">    -10.78628308 </i>
    <i name="e_0_energy">    -10.78628308 </i>
   </energy>
  </scstep>
  <scstep>
   <time name="dav">    0.01    0.01</time>
   <time name="total">    0.05    0.05</time>
   <energy>
    <i name="e_fr_energy">    -10.78628395 </i>
    <i name="e_wo_entrp">    -10.78628395 </i>
    <i name="e_0_energy">    -10.78628395 </i>
   </energy>
  </scstep>
  <scstep>
   <time name="dav">    0.00    0.00</time>
   <time name="total">    0.05    0.05</time>
   <energy>
    <i name="e_fr_energy">    -10.78628606 </i>
    <i name="e_wo_entrp">    -10.78628606 </i>
    <i name="e_0_energy">    -10.78628606 </i>
   </energy>
  </scstep>
  <scstep>
   <time name="dav">    0.00    0.00</time>
   <time name="total">    0.04    0.04</time>
   <energy>
    <i name="alphaZ">      3.28700818 </i>
    <i name="ewald">   -226.80303095 </i>
    <i name="hartreedc">    -15.33229031 </i>
    <i name="XCdc">    -18.05045063 </i>
    <i name="pawpsdc">    830.54793447 </i>
    <i name="pawaedc">   -795.56884220 </i>
    <i name="eentropy">      0.00000000 </i>
    <i name="bandstr">      5.00189295 </i>
    <i name="atom">    206.13149246 </i>
    <i name="e_fr_energy">    -10.78628603 </i>
    <i name="e_wo_entrp">    -10.78628603 </i>
    <i name="e_0_energy">    -10.78628603 </i>
   </energy>
  </scstep>
  <structure>
   <crystal>
    <varray name="basis" >
     <v>       0.00000000       2.73607441       2.73607441 </v>
     <v>       2.73607441      -0.00000000       2.73607441 </v>
     <v>       2.73607441       2.73607441       0.00000000 </v>
    </varray>
    <i name="volume">     40.96507088 </i>
    <varray name="rec_basis" >
     <v>      -0.18274357       0.18274357       0.18274357 </v>
     <v>       0.18274357      -0.18274357       0.18274357 </v>
     <v>       0.18274357       0.18274357      -0.18274357 </v>
    </varray>
   </crystal>
   <varray name="positions" >
    <v>       0.25000000       0.25000000       0.25000000 </v>
    <v>       0.00000000       0.00000000       0.00000000 </v>
   </varray>
  </structure>
  <varray name="forces" >
   <v>       0.00000000       0.00000000       0.00000000 </v>
   <v>      -0.00000000      -0.00000000      -0.00000000 </v>
  </varray>
  <varray name="stress" >
   <v>       0.04970004      -0.00000000      -0.00000000 </v>
   <v>       0.00000000       0.04970004      -0.00000000 </v>
   <v>      -0.00000000       0.00000000       0.04970004 </v>
  </varray>
  <energy>
   <i name="e_fr_energy">    -10.78628603 </i>
   <i name="e_wo_entrp">    -10.78628603 </i>
   <i name="e_0_energy">    -10.78628603 </i>
  </energy>
  <time name="totalsc">    0.36    0.38</time>
  <eigenvalues>
   <array>
    <dimension dim="1">band</dimension>
    <dimension dim="2">kpoint</dimension>
    <dimension dim="3">spin</dimension>
    <field>eigene</field>
    <field>occ</field>
    <set>
     <set comment="spin 1">
      <set comment="kpoint 1">
       <r>   -6.1896    1.0000 </r>
       <r>    5.6161    1.0000 </r>
       <r>    5.6161    1.0000 </r>
       <r>    5.6161    1.0000 </r>
       <r>    8.1648    0.0000 </r>
       <r>    8.1648    0.0000 </r>
       <r>    8.1648    0.0000 </r>
       <r>    8.7298    0.0000 </r>
      </set>
      <set comment="kpoint 2">
       <r>   -5.6823    1.0000 </r>
       <r>    2.6338    1.0000 </r>
       <r>    5.0482    1.0000 </r>
       <r>    5.0482    1.0000 </r>
       <r>    7.7586    0.0000 </r>
       <r>    8.9524    0.0000 </r>
       <r>    8.9524    0.0000 </r>
       <r>   11.4794    0.0000 </r>
      </set>
      <set comment="kpoint 3">
       <r>   -4.3511    1.0000 </r>
       <r>   -0.5689    1.0000 </r>
       <r>    4.5083    1.0000 </r>
       <r>    4.5083    1.0000 </r>
       <r>    7.1558    0.0000 </r>
       <r>    9.0291    0.0000 </r>
       <r>    9.0291    0.0000 </r>
       <r>   13.4128    0.0000 </r>
      </set>
      <set comment="kpoint 4">
       <r>   -5.5074    1.0000 </r>
       <r>    2.9799    1.0000 </r>
       <r>    4.1616    1.0000 </r>
       <r>    4.1616    1.0000 </r>
       <r>    7.0870    0.0000 </r>
       <r>    9.4597    0.0000 </r>
       <r>   10.4486    0.0000 </r>
       <r>   10.4486    0.0000 </r>
      </set>
      <set comment="kpoint 5">
       <r>   -4.3900    1.0000 </r>
       <r>    0.3540    1.0000 </r>
       <r>    3.0395    1.0000 </r>
       <r>    3.6617    1.0000 </r>
       <r>    7.3979    0.0000 </r>
       <r>    9.6782    0.0000 </r>
       <r>   10.4671    0.0000 </r>
       <r>   11.0033    0.0000 </r>
      </set>
      <set comment="kpoint 6">
       <r>   -3.5306    1.0000 </r>
       <r>   -1.0023    1.0000 </r>
       <r>    2.2477    1.0000 </r>
       <r>    3.9362    1.0000 </r>
       <r>    7.6681    0.0000 </r>
       <r>   10.1551    0.0000 </r>
       <r>   10.3878    0.0000 </r>
       <r>   13.1002    0.0000 </r>
      </set>
      <set comment="kpoint 7">
       <r>   -4.8678    1.0000 </r>
       <r>    1.1699    1.0000 </r>
       <r>    2.6837    1.0000 </r>
       <r>    4.7847    1.0000 </r>
       <r>    8.4572    0.0000 </r>
       <r>    9.5721    0.0000 </r>
       <r>    9.8805    0.0000 </r>
       <r>   11.2611    0.0000 </r>
      </set>
      <set comment="kpoint 8">
       <r>   -3.5301    1.0000 </r>
       <r>   -0.5193    1.0000 </r>
       <r>    2.9774    1.0000 </r>
       <r>    2.9774    1.0000 </r>
       <r>    6.2305    0.0000 </r>
       <r>    6.9618    0.0000 </r>
       <r>   14.0040    0.0000 </r>
       <r>   14.0040    0.0000 </r>
      </set>
      <set comment="kpoint 9">
       <r>   -2.3565    1.0000 </r>
       <r>   -1.7537    1.0000 </r>
       <r>    1.6493    1.0000 </r>
       <r>    3.0932    1.0000 </r>
       <r>    6.6760    0.0000 </r>
       <r>    8.7593    0.0000 </r>
       <r>   13.5985    0.0000 </r>
       <r>   14.1783    0.0000 </r>
      </set>
      <set comment="kpoint 10">
       <r>   -3.1044    1.0000 </r>
       <r>   -0.8961    1.0000 </r>
       <r>    1.7292    1.0000 </r>
       <r>    2.6952    1.0000 </r>
       <r>    8.9925    0.0000 </r>
       <r>    9.3915    0.0000 </r>
       <r>    9.9765    0.0000 </r>
       <r>   13.3074    0.0000 </r>
      </set>
     </set>
    </set>
   </array>
  </eigenvalues>
  <separator name="orbital magnetization" >
   <v name="MAGDIPOLOUT">      0.00000000      0.00000000      0.00000000</v>
  </separator>
  <dos>
   <i name="efermi">      5.61574124 </i>
   <total>
    <array>
     <dimension dim="1">gridpoints</dimension>
     <dimension dim="2">spin</dimension>
     <field>energy</field>
     <field>total</field>
     <field>integrated</field>
     <set>
      <set comment="spin 1">
       <r>    -7.2080     0.0000     0.0000 </r>
       <r>    -7.1333     0.0000     0.0000 </r>
       <r>    -7.0586     0.0000     0.0000 </r>
       <r>    -6.9839     0.0000     0.0000 </r>
       <r>    -6.9092     0.0000     0.0000 </r>
       <r>    -6.8346     0.0000     0.0000 </r>
       <r>    -6.7599     0.0000     0.0000 </r>
       <r>    -6.6852     0.0000     0.0000 </r>
       <r>    -6.6105     0.0000     0.0000 </r>
       <r>    -6.5358     0.0000     0.0000 </r>
       <r>    -6.4612     0.0000     0.0000 </r>
       <r>    -6.3865     0.0000     0.0000 </r>
       <r>    -6.3118     0.0000     0.0000 </r>
       <r>    -6.2371     0.0000     0.0000 </r>
       <r>    -6.1624     0.0008     0.0000 </r>
       <r>    -6.0877     0.0113     0.0004 </r>
       <r>    -6.0131     0.0341     0.0020 </r>
       <r>    -5.9384     0.0690     0.0058 </r>
       <r>    -5.8637     0.1161     0.0126 </r>
       <r>    -5.7890     0.1755     0.0234 </r>
       <r>    -5.7143     0.2470     0.0391 </r>
       <r>    -5.6396     0.2632     0.0592 </r>
       <r>    -5.5650     0.2504     0.0782 </r>
       <r>    -5.4903     0.2616     0.0972 </r>
       <r>    -5.4156     0.2804     0.1174 </r>
       <r>    -5.3409     0.3000     0.1391 </r>
       <r>    -5.2662     0.3202     0.1622 </r>
       <r>    -5.1916     0.3411     0.1869 </r>
       <r>    -5.1169     0.3626     0.2132 </r>
       <r>    -5.0422     0.3847     0.2411 </r>
       <r>    -4.9675     0.4076     0.2707 </r>
       <r>    -4.8928     0.4310     0.3020 </r>
       <r>    -4.8181     0.4549     0.3351 </r>
       <r>    -4.7435     0.4785     0.3699 </r>
       <r>    -4.6688     0.5017     0.4065 </r>
       <r>    -4.5941     0.5245     0.4449 </r>
       <r>    -4.5194     0.5470     0.4849 </r>
       <r>    -4.4447     0.5690     0.5266 </r>
       <r>    -4.3701     0.5936     0.5699 </r>
       <r>    -4.2954     0.6740     0.6169 </r>
       <r>    -4.2207     0.7529     0.6703 </r>
       <r>    -4.1460     0.8173     0.7290 </r>
       <r>    -4.0713     0.8671     0.7920 </r>
       <r>    -3.9966     0.9023     0.8582 </r>
       <r>    -3.9220     0.9231     0.9264 </r>
       <r>    -3.8473     0.9292     0.9957 </r>
       <r>    -3.7726     0.9208     1.0649 </r>
       <r>    -3.6979     0.8979     1.1329 </r>
       <r>    -3.6232     0.8604     1.1986 </r>
       <r>    -3.5485     0.8083     1.2610 </r>
       <r>    -3.4739     0.8457     1.3220 </r>
       <r>    -3.3992     0.8884     1.3869 </r>
       <r>    -3.3245     0.9016     1.4539 </r>
       <r>    -3.2498     0.8853     1.5208 </r>
       <r>    -3.1751     0.8396     1.5854 </r>
       <r>    -3.1005     1.2329     1.6625 </r>
       <r>    -3.0258     0.8862     1.7336 </r>
       <r>    -2.9511     0.7605     1.7950 </r>
       <r>    -2.8764     0.6416     1.8474 </r>
       <r>    -2.8017     0.5293     1.8910 </r>
       <r>    -2.7270     0.4239     1.9266 </r>
       <r>    -2.6524     0.3251     1.9545 </r>
       <r>    -2.5777     0.2331     1.9753 </r>
       <r>    -2.5030     0.1478     1.9895 </r>
       <r>    -2.4283     0.0692     1.9976 </r>
       <r>    -2.3536     0.0000     2.0000 </r>
       <r>    -2.2789     0.0000     2.0000 </r>
       <r>    -2.2043     0.0000     2.0000 </r>
       <r>    -2.1296     0.0000     2.0000 </r>
       <r>    -2.0549     0.0000     2.0000 </r>
       <r>    -1.9802     0.0000     2.0000 </r>
       <r>    -1.9055     0.0000     2.0000 </r>
       <r>    -1.8309     0.0000     2.0000 </r>
       <r>    -1.7562     0.0000     2.0000 </r>
       <r>    -1.6815     0.0598     2.0021 </r>
       <r>    -1.6068     0.1336     2.0092 </r>
       <r>    -1.5321     0.2195     2.0223 </r>
       <r>    -1.4574     0.3174     2.0423 </r>
       <r>    -1.3828     0.4275     2.0701 </r>
       <r>    -1.3081     0.5498     2.1065 </r>
       <r>    -1.2334     0.6841     2.1525 </r>
       <r>    -1.1587     0.8305     2.2090 </r>
       <r>    -1.0840     0.9890     2.2768 </r>
       <r>    -1.0094     1.1597     2.3570 </r>
       <r>    -0.9347     2.2331     2.5006 </r>
       <r>    -0.8600     1.2766     2.6249 </r>
       <r>    -0.7853     1.1020     2.7062 </r>
       <r>    -0.7106     1.0698     2.7878 </r>
       <r>    -0.6359     0.9656     2.8642 </r>
       <r>    -0.5613     0.8057     2.9303 </r>
       <r>    -0.4866     0.7581     2.9886 </r>
       <r>    -0.4119     0.7170     3.0436 </r>
       <r>    -0.3372     0.6773     3.0957 </r>
       <r>    -0.2625     0.6390     3.1448 </r>
       <r>    -0.1878     0.6022     3.1912 </r>
       <r>    -0.1132     0.5667     3.2348 </r>
       <r>    -0.0385     0.5327     3.2759 </r>
       <r>     0.0362     0.5001     3.3144 </r>
       <r>     0.1109     0.4690     3.3506 </r>
       <r>     0.1856     0.4392     3.3845 </r>
       <r>     0.2602     0.4109     3.4162 </r>
       <r>     0.3349     0.3840     3.4459 </r>
       <r>     0.4096     0.3579     3.4736 </r>
       <r>     0.4843     0.3336     3.4994 </r>
       <r>     0.5590     0.3114     3.5235 </r>
       <r>     0.6337     0.2912     3.5460 </r>
       <r>     0.7083     0.2730     3.5670 </r>
       <r>     0.7830     0.2569     3.5868 </r>
       <r>     0.8577     0.2427     3.6054 </r>
       <r>     0.9324     0.2307     3.6231 </r>
       <r>     1.0071     0.2206     3.6399 </r>
       <r>     1.0817     0.2126     3.6561 </r>
       <r>     1.1564     0.2067     3.6717 </r>
       <r>     1.2311     0.2021     3.6870 </r>
       <r>     1.3058     0.1976     3.7019 </r>
       <r>     1.3805     0.1933     3.7165 </r>
       <r>     1.4552     0.1891     3.7308 </r>
       <r>     1.5298     0.1850     3.7448 </r>
       <r>     1.6045     0.1810     3.7584 </r>
       <r>     1.6792     1.2692     3.7877 </r>
       <r>     1.7539     1.2993     3.9465 </r>
       <r>     1.8286     1.1595     4.0304 </r>
       <r>     1.9033     1.2163     4.1192 </r>
       <r>     1.9779     1.2556     4.2116 </r>
       <r>     2.0526     1.2774     4.3063 </r>
       <r>     2.1273     1.2815     4.4020 </r>
       <r>     2.2020     1.2681     4.4973 </r>
       <r>     2.2767     1.2271     4.5908 </r>
       <r>     2.3513     1.1664     4.6802 </r>
       <r>     2.4260     1.1082     4.7651 </r>
       <r>     2.5007     1.0525     4.8458 </r>
       <r>     2.5754     0.9991     4.9224 </r>
       <r>     2.6501     0.9421     4.9950 </r>
       <r>     2.7248     1.5901     5.0931 </r>
       <r>     2.7994     1.4323     5.1974 </r>
       <r>     2.8741     1.5827     5.3094 </r>
       <r>     2.9488     1.8269     5.4362 </r>
       <r>     3.0235     2.4324     5.5938 </r>
       <r>     3.0982     1.6549     5.7554 </r>
       <r>     3.1729     1.6267     5.8780 </r>
       <r>     3.2475     1.5961     5.9983 </r>
       <r>     3.3222     1.5633     6.1163 </r>
       <r>     3.3969     1.5281     6.2318 </r>
       <r>     3.4716     1.4905     6.3445 </r>
       <r>     3.5463     1.4507     6.4543 </r>
       <r>     3.6209     1.4085     6.5611 </r>
       <r>     3.6956     1.3606     6.6646 </r>
       <r>     3.7703     1.3326     6.7649 </r>
       <r>     3.8450     1.3385     6.8645 </r>
       <r>     3.9197     1.3784     6.9657 </r>
       <r>     3.9944     1.3675     7.0689 </r>
       <r>     4.0690     1.3246     7.1695 </r>
       <r>     4.1437     1.2686     7.2664 </r>
       <r>     4.2184     1.1987     7.3586 </r>
       <r>     4.2931     1.1134     7.4451 </r>
       <r>     4.3678     1.0125     7.5245 </r>
       <r>     4.4424     0.8961     7.5959 </r>
       <r>     4.5171     0.7753     7.6580 </r>
       <r>     4.5918     0.7257     7.7141 </r>
       <r>     4.6665     0.6682     7.7662 </r>
       <r>     4.7412     0.6027     7.8137 </r>
       <r>     4.8159     0.5295     7.8561 </r>
       <r>     4.8905     0.4505     7.8927 </r>
       <r>     4.9652     0.3663     7.9232 </r>
       <r>     5.0399     0.2769     7.9473 </r>
       <r>     5.1146     0.2079     7.9652 </r>
       <r>     5.1893     0.1506     7.9786 </r>
       <r>     5.2640     0.1025     7.9880 </r>
       <r>     5.3386     0.0636     7.9941 </r>
       <r>     5.4133     0.0340     7.9977 </r>
       <r>     5.4880     0.0136     7.9994 </r>
       <r>     5.5627     0.0024     8.0000 </r>
       <r>     5.6374     0.0000     8.0000 </r>
       <r>     5.7120     0.0000     8.0000 </r>
       <r>     5.7867     0.0000     8.0000 </r>
       <r>     5.8614     0.0000     8.0000 </r>
       <r>     5.9361     0.0000     8.0000 </r>
       <r>     6.0108     0.0000     8.0000 </r>
       <r>     6.0855     0.0000     8.0000 </r>
       <r>     6.1601     0.0000     8.0000 </r>
       <r>     6.2348     0.0041     8.0000 </r>
       <r>     6.3095     0.0681     8.0028 </r>
       <r>     6.3842     0.1171     8.0098 </r>
       <r>     6.4589     0.1511     8.0199 </r>
       <r>     6.5335     0.1703     8.0320 </r>
       <r>     6.6082     0.1745     8.0450 </r>
       <r>     6.6829     0.1682     8.0577 </r>
       <r>     6.7576     0.2009     8.0715 </r>
       <r>     6.8323     0.2378     8.0878 </r>
       <r>     6.9070     0.2787     8.1071 </r>
       <r>     6.9816     0.3250     8.1296 </r>
       <r>     7.0563     0.3790     8.1558 </r>
       <r>     7.1310     0.4399     8.1863 </r>
       <r>     7.2057     0.6093     8.2241 </r>
       <r>     7.2804     0.9127     8.2803 </r>
       <r>     7.3551     1.3185     8.3630 </r>
       <r>     7.4297     1.7927     8.4794 </r>
       <r>     7.5044     2.0783     8.6255 </r>
       <r>     7.5791     2.1224     8.7838 </r>
       <r>     7.6538     1.9248     8.9364 </r>
       <r>     7.7285     1.8622     9.0760 </r>
       <r>     7.8031     1.7386     9.2120 </r>
       <r>     7.8778     1.5612     9.3351 </r>
       <r>     7.9525     1.4019     9.4456 </r>
       <r>     8.0272     1.2607     9.5449 </r>
       <r>     8.1019     1.1377     9.6344 </r>
       <r>     8.1766     1.0327     9.7153 </r>
       <r>     8.2512     0.9407     9.7889 </r>
       <r>     8.3259     0.8590     9.8561 </r>
       <r>     8.4006     0.7876     9.9175 </r>
       <r>     8.4753     0.7265     9.9740 </r>
       <r>     8.5500     0.6774    10.0263 </r>
       <r>     8.6247     0.6409    10.0755 </r>
       <r>     8.6993     0.6170    10.1224 </r>
       <r>     8.7740     0.6090    10.1680 </r>
       <r>     8.8487     0.6346    10.2142 </r>
       <r>     8.9234     0.6859    10.2634 </r>
       <r>     8.9981     0.9362    10.3335 </r>
       <r>     9.0727     1.0364    10.3985 </r>
       <r>     9.1474     1.3724    10.4885 </r>
       <r>     9.2221     1.6978    10.6032 </r>
       <r>     9.2968     2.0126    10.7418 </r>
       <r>     9.3715     2.3168    10.9036 </r>
       <r>     9.4462     2.5098    11.0861 </r>
       <r>     9.5208     2.8119    11.2748 </r>
       <r>     9.5955     3.5382    11.5136 </r>
       <r>     9.6702     2.5857    11.7566 </r>
       <r>     9.7449     2.2507    11.9299 </r>
       <r>     9.8196     2.0946    12.0924 </r>
       <r>     9.8942     1.8926    12.2415 </r>
       <r>     9.9689     1.8364    12.3792 </r>
       <r>    10.0436     2.2956    12.5436 </r>
       <r>    10.1183     2.0895    12.7006 </r>
       <r>    10.1930     2.1136    12.8547 </r>
       <r>    10.2677     2.1831    13.0161 </r>
       <r>    10.3423     2.0932    13.1768 </r>
       <r>    10.4170     1.2347    13.3151 </r>
       <r>    10.4917     0.4497    13.3696 </r>
       <r>    10.5664     0.4637    13.4036 </r>
       <r>    10.6411     0.4992    13.4394 </r>
       <r>    10.7158     0.5561    13.4787 </r>
       <r>    10.7904     0.6344    13.5230 </r>
       <r>    10.8651     0.7342    13.5740 </r>
       <r>    10.9398     0.8555    13.6332 </r>
       <r>    11.0145     0.9731    13.7022 </r>
       <r>    11.0892     0.9543    13.7742 </r>
       <r>    11.1638     0.9300    13.8446 </r>
       <r>    11.2385     0.9001    13.9130 </r>
       <r>    11.3132     0.8575    13.9788 </r>
       <r>    11.3879     0.7815    14.0402 </r>
       <r>    11.4626     0.6706    14.0946 </r>
       <r>    11.5373     0.6423    14.1428 </r>
       <r>    11.6119     0.6443    14.1908 </r>
       <r>    11.6866     0.6468    14.2390 </r>
       <r>    11.7613     0.6497    14.2874 </r>
       <r>    11.8360     0.6529    14.3361 </r>
       <r>    11.9107     0.6566    14.3850 </r>
       <r>    11.9853     0.6606    14.4341 </r>
       <r>    12.0600     0.6651    14.4836 </r>
       <r>    12.1347     0.6699    14.5335 </r>
       <r>    12.2094     0.6751    14.5837 </r>
       <r>    12.2841     0.6808    14.6343 </r>
       <r>    12.3588     0.6868    14.6854 </r>
       <r>    12.4334     0.6932    14.7369 </r>
       <r>    12.5081     0.7000    14.7890 </r>
       <r>    12.5828     0.7073    14.8415 </r>
       <r>    12.6575     0.7149    14.8946 </r>
       <r>    12.7322     0.7229    14.9483 </r>
       <r>    12.8069     0.7313    15.0026 </r>
       <r>    12.8815     0.7401    15.0575 </r>
       <r>    12.9562     0.7493    15.1132 </r>
       <r>    13.0309     0.7589    15.1695 </r>
       <r>    13.1056     0.8249    15.2267 </r>
       <r>    13.1803     1.3442    15.3108 </r>
       <r>    13.2549     1.3644    15.4150 </r>
       <r>    13.3296     1.4357    15.5242 </r>
       <r>    13.4043     0.8858    15.6036 </r>
       <r>    13.4790     0.7484    15.6635 </r>
       <r>    13.5537     0.6544    15.7158 </r>
       <r>    13.6284     0.5962    15.7619 </r>
       <r>    13.7030     0.5667    15.8054 </r>
       <r>    13.7777     0.5195    15.8461 </r>
       <r>    13.8524     0.4546    15.8826 </r>
       <r>    13.9271     0.3721    15.9135 </r>
       <r>    14.0018     0.2719    15.9377 </r>
       <r>    14.0765     0.4771    15.9681 </r>
       <r>    14.1511     0.2152    15.9969 </r>
       <r>    14.2258     0.0000    16.0000 </r>
       <r>    14.3005     0.0000    16.0000 </r>
       <r>    14.3752     0.0000    16.0000 </r>
       <r>    14.4499     0.0000    16.0000 </r>
       <r>    14.5245     0.0000    16.0000 </r>
       <r>    14.5992     0.0000    16.0000 </r>
       <r>    14.6739     0.0000    16.0000 </r>
       <r>    14.7486     0.0000    16.0000 </r>
       <r>    14.8233     0.0000    16.0000 </r>
       <r>    14.8980     0.0000    16.0000 </r>
       <r>    14.9726     0.0000    16.0000 </r>
       <r>    15.0473     0.0000    16.0000 </r>
       <r>    15.1220     0.0000    16.0000 </r>
       <r>    15.1967     0.0000    16.0000 </r>
      </set>
     </set>
    </array>
   </total>
   <partial>
    <array>
     <dimension dim="1">gridpoints</dimension>
     <dimension dim="2">spin</dimension>
     <dimension dim="3">ion</dimension>
     <field>energy</field>
     <field>  s  </field>
     <field>  p  </field>
     <field>  d  </field>
     <set>
      <set comment="ion 1">
       <set comment="spin 1">
        <r>    -7.2080     0.0000     0.0000     0.0000 </r>
        <r>    -7.1333     0.0000     0.0000     0.0000 </r>
        <r>    -7.0586     0.0000     0.0000     0.0000 </r>
        <r>    -6.9839     0.0000     0.0000     0.0000 </r>
        <r>    -6.9092     0.0000     0.0000     0.0000 </r>
        <r>    -6.8346     0.0000     0.0000     0.0000 </r>
        <r>    -6.7599     0.0000     0.0000     0.0000 </r>
        <r>    -6.6852     0.0000     0.0000     0.0000 </r>
        <r>    -6.6105     0.0000     0.0000     0.0000 </r>
        <r>    -6.5358     0.0000     0.0000     0.0000 </r>
        <r>    -6.4612     0.0000     0.0000     0.0000 </r>
        <r>    -6.3865     0.0000     0.0000     0.0000 </r>
        <r>    -6.3118     0.0000     0.0000     0.0000 </r>
        <r>    -6.2371     0.0000     0.0000     0.0000 </r>
        <r>    -6.1624     0.0002     0.0000     0.0000 </r>
        <r>    -6.0877     0.0024     0.0001     0.0000 </r>
        <r>    -6.0131     0.0072     0.0002     0.0000 </r>
        <r>    -5.9384     0.0145     0.0003     0.0000 </r>
        <r>    -5.8637     0.0244     0.0005     0.0000 </r>
        <r>    -5.7890     0.0368     0.0008     0.0000 </r>
        <r>    -5.7143     0.0518     0.0011     0.0000 </r>
        <r>    -5.6396     0.0551     0.0015     0.0000 </r>
        <r>    -5.5650     0.0523     0.0019     0.0000 </r>
        <r>    -5.4903     0.0546     0.0023     0.0000 </r>
        <r>    -5.4156     0.0585     0.0027     0.0000 </r>
        <r>    -5.3409     0.0625     0.0030     0.0000 </r>
        <r>    -5.2662     0.0667     0.0034     0.0000 </r>
        <r>    -5.1916     0.0711     0.0038     0.0000 </r>
        <r>    -5.1169     0.0755     0.0042     0.0000 </r>
        <r>    -5.0422     0.0801     0.0046     0.0000 </r>
        <r>    -4.9675     0.0849     0.0050     0.0000 </r>
        <r>    -4.8928     0.0898     0.0054     0.0000 </r>
        <r>    -4.8181     0.0948     0.0059     0.0000 </r>
        <r>    -4.7435     0.0997     0.0064     0.0000 </r>
        <r>    -4.6688     0.1046     0.0071     0.0000 </r>
        <r>    -4.5941     0.1094     0.0078     0.0000 </r>
        <r>    -4.5194     0.1142     0.0086     0.0000 </r>
        <r>    -4.4447     0.1190     0.0095     0.0000 </r>
        <r>    -4.3701     0.1243     0.0105     0.0000 </r>
        <r>    -4.2954     0.1415     0.0122     0.0000 </r>
        <r>    -4.2207     0.1584     0.0139     0.0000 </r>
        <r>    -4.1460     0.1722     0.0153     0.0000 </r>
        <r>    -4.0713     0.1829     0.0165     0.0000 </r>
        <r>    -3.9966     0.1904     0.0175     0.0000 </r>
        <r>    -3.9220     0.1948     0.0182     0.0000 </r>
        <r>    -3.8473     0.1961     0.0187     0.0000 </r>
        <r>    -3.7726     0.1942     0.0189     0.0000 </r>
        <r>    -3.6979     0.1892     0.0190     0.0000 </r>
        <r>    -3.6232     0.1811     0.0187     0.0000 </r>
        <r>    -3.5485     0.1698     0.0183     0.0000 </r>
        <r>    -3.4739     0.1776     0.0200     0.0000 </r>
        <r>    -3.3992     0.1866     0.0218     0.0000 </r>
        <r>    -3.3245     0.1893     0.0229     0.0000 </r>
        <r>    -3.2498     0.1857     0.0231     0.0000 </r>
        <r>    -3.1751     0.1758     0.0226     0.0000 </r>
        <r>    -3.1005     0.2568     0.0351     0.0000 </r>
        <r>    -3.0258     0.1847     0.0254     0.0000 </r>
        <r>    -2.9511     0.1584     0.0220     0.0000 </r>
        <r>    -2.8764     0.1335     0.0187     0.0000 </r>
        <r>    -2.8017     0.1100     0.0156     0.0000 </r>
        <r>    -2.7270     0.0880     0.0126     0.0000 </r>
        <r>    -2.6524     0.0674     0.0098     0.0000 </r>
        <r>    -2.5777     0.0483     0.0071     0.0000 </r>
        <r>    -2.5030     0.0306     0.0046     0.0000 </r>
        <r>    -2.4283     0.0143     0.0022     0.0000 </r>
        <r>    -2.3536     0.0000     0.0000     0.0000 </r>
        <r>    -2.2789     0.0000     0.0000     0.0000 </r>
        <r>    -2.2043     0.0000     0.0000     0.0000 </r>
        <r>    -2.1296     0.0000     0.0000     0.0000 </r>
        <r>    -2.0549     0.0000     0.0000     0.0000 </r>
        <r>    -1.9802     0.0000     0.0000     0.0000 </r>
        <r>    -1.9055     0.0000     0.0000     0.0000 </r>
        <r>    -1.8309     0.0000     0.0000     0.0000 </r>
        <r>    -1.7562     0.0000     0.0000     0.0000 </r>
        <r>    -1.6815     0.0110     0.0034     0.0000 </r>
        <r>    -1.6068     0.0243     0.0077     0.0000 </r>
        <r>    -1.5321     0.0395     0.0128     0.0000 </r>
        <r>    -1.4574     0.0566     0.0188     0.0000 </r>
        <r>    -1.3828     0.0757     0.0257     0.0000 </r>
        <r>    -1.3081     0.0967     0.0334     0.0000 </r>
        <r>    -1.2334     0.1196     0.0419     0.0000 </r>
        <r>    -1.1587     0.1445     0.0513     0.0000 </r>
        <r>    -1.0840     0.1713     0.0615     0.0000 </r>
        <r>    -1.0094     0.2000     0.0725     0.0000 </r>
        <r>    -0.9347     0.3582     0.1544     0.0000 </r>
        <r>    -0.8600     0.1968     0.0935     0.0000 </r>
        <r>    -0.7853     0.1602     0.0852     0.0000 </r>
        <r>    -0.7106     0.1550     0.0833     0.0000 </r>
        <r>    -0.6359     0.1409     0.0752     0.0000 </r>
        <r>    -0.5613     0.1200     0.0623     0.0000 </r>
        <r>    -0.4866     0.1126     0.0591     0.0000 </r>
        <r>    -0.4119     0.1063     0.0562     0.0000 </r>
        <r>    -0.3372     0.1003     0.0535     0.0000 </r>
        <r>    -0.2625     0.0944     0.0509     0.0000 </r>
        <r>    -0.1878     0.0887     0.0484     0.0000 </r>
        <r>    -0.1132     0.0832     0.0460     0.0000 </r>
        <r>    -0.0385     0.0779     0.0437     0.0000 </r>
        <r>     0.0362     0.0727     0.0414     0.0000 </r>
        <r>     0.1109     0.0678     0.0393     0.0000 </r>
        <r>     0.1856     0.0631     0.0373     0.0000 </r>
        <r>     0.2602     0.0586     0.0354     0.0000 </r>
        <r>     0.3349     0.0542     0.0336     0.0000 </r>
        <r>     0.4096     0.0501     0.0317     0.0000 </r>
        <r>     0.4843     0.0463     0.0300     0.0000 </r>
        <r>     0.5590     0.0429     0.0283     0.0000 </r>
        <r>     0.6337     0.0397     0.0269     0.0000 </r>
        <r>     0.7083     0.0369     0.0256     0.0000 </r>
        <r>     0.7830     0.0345     0.0244     0.0000 </r>
        <r>     0.8577     0.0323     0.0233     0.0000 </r>
        <r>     0.9324     0.0305     0.0224     0.0000 </r>
        <r>     1.0071     0.0290     0.0217     0.0000 </r>
        <r>     1.0817     0.0278     0.0211     0.0000 </r>
        <r>     1.1564     0.0270     0.0206     0.0000 </r>
        <r>     1.2311     0.0263     0.0202     0.0000 </r>
        <r>     1.3058     0.0257     0.0199     0.0000 </r>
        <r>     1.3805     0.0251     0.0196     0.0000 </r>
        <r>     1.4552     0.0245     0.0192     0.0000 </r>
        <r>     1.5298     0.0239     0.0189     0.0000 </r>
        <r>     1.6045     0.0233     0.0186     0.0000 </r>
        <r>     1.6792     0.0280     0.1897     0.0000 </r>
        <r>     1.7539     0.0344     0.1939     0.0000 </r>
        <r>     1.8286     0.0351     0.1725     0.0000 </r>
        <r>     1.9033     0.0369     0.1817     0.0000 </r>
        <r>     1.9779     0.0382     0.1882     0.0000 </r>
        <r>     2.0526     0.0392     0.1921     0.0000 </r>
        <r>     2.1273     0.0399     0.1932     0.0000 </r>
        <r>     2.2020     0.0401     0.1918     0.0000 </r>
        <r>     2.2767     0.0393     0.1863     0.0000 </r>
        <r>     2.3513     0.0375     0.1780     0.0000 </r>
        <r>     2.4260     0.0358     0.1701     0.0000 </r>
        <r>     2.5007     0.0342     0.1624     0.0000 </r>
        <r>     2.5754     0.0327     0.1551     0.0000 </r>
        <r>     2.6501     0.0304     0.1476     0.0000 </r>
        <r>     2.7248     0.0265     0.2664     0.0000 </r>
        <r>     2.7994     0.0223     0.2457     0.0000 </r>
        <r>     2.8741     0.0196     0.2788     0.0000 </r>
        <r>     2.9488     0.0179     0.3290     0.0000 </r>
        <r>     3.0235     0.0171     0.4500     0.0000 </r>
        <r>     3.0982     0.0159     0.3029     0.0000 </r>
        <r>     3.1729     0.0148     0.2992     0.0000 </r>
        <r>     3.2475     0.0138     0.2949     0.0000 </r>
        <r>     3.3222     0.0128     0.2902     0.0000 </r>
        <r>     3.3969     0.0118     0.2850     0.0000 </r>
        <r>     3.4716     0.0109     0.2793     0.0000 </r>
        <r>     3.5463     0.0100     0.2731     0.0000 </r>
        <r>     3.6209     0.0092     0.2664     0.0000 </r>
        <r>     3.6956     0.0083     0.2586     0.0000 </r>
        <r>     3.7703     0.0076     0.2554     0.0000 </r>
        <r>     3.8450     0.0068     0.2597     0.0000 </r>
        <r>     3.9197     0.0060     0.2715     0.0000 </r>
        <r>     3.9944     0.0053     0.2716     0.0000 </r>
        <r>     4.0690     0.0047     0.2645     0.0000 </r>
        <r>     4.1437     0.0042     0.2544     0.0000 </r>
        <r>     4.2184     0.0036     0.2413     0.0000 </r>
        <r>     4.2931     0.0031     0.2248     0.0000 </r>
        <r>     4.3678     0.0026     0.2050     0.0000 </r>
        <r>     4.4424     0.0022     0.1819     0.0000 </r>
        <r>     4.5171     0.0017     0.1577     0.0000 </r>
        <r>     4.5918     0.0014     0.1482     0.0000 </r>
        <r>     4.6665     0.0011     0.1369     0.0000 </r>
        <r>     4.7412     0.0009     0.1238     0.0000 </r>
        <r>     4.8159     0.0007     0.1090     0.0000 </r>
        <r>     4.8905     0.0005     0.0929     0.0000 </r>
        <r>     4.9652     0.0003     0.0757     0.0000 </r>
        <r>     5.0399     0.0002     0.0574     0.0000 </r>
        <r>     5.1146     0.0002     0.0431     0.0000 </r>
        <r>     5.1893     0.0001     0.0312     0.0000 </r>
        <r>     5.2640     0.0001     0.0212     0.0000 </r>
        <r>     5.3386     0.0000     0.0132     0.0000 </r>
        <r>     5.4133     0.0000     0.0070     0.0000 </r>
        <r>     5.4880     0.0000     0.0028     0.0000 </r>
        <r>     5.5627     0.0000     0.0005     0.0000 </r>
        <r>     5.6374     0.0000     0.0000     0.0000 </r>
        <r>     5.7120     0.0000     0.0000     0.0000 </r>
        <r>     5.7867     0.0000     0.0000     0.0000 </r>
        <r>     5.8614     0.0000     0.0000     0.0000 </r>
        <r>     5.9361     0.0000     0.0000     0.0000 </r>
        <r>     6.0108     0.0000     0.0000     0.0000 </r>
        <r>     6.0855     0.0000     0.0000     0.0000 </r>
        <r>     6.1601     0.0000     0.0000     0.0000 </r>
        <r>     6.2348     0.0002     0.0002     0.0000 </r>
        <r>     6.3095     0.0035     0.0031     0.0000 </r>
        <r>     6.3842     0.0059     0.0055     0.0000 </r>
        <r>     6.4589     0.0075     0.0074     0.0000 </r>
        <r>     6.5335     0.0083     0.0088     0.0000 </r>
        <r>     6.6082     0.0082     0.0098     0.0000 </r>
        <r>     6.6829     0.0075     0.0105     0.0000 </r>
        <r>     6.7576     0.0089     0.0127     0.0000 </r>
        <r>     6.8323     0.0106     0.0152     0.0000 </r>
        <r>     6.9070     0.0124     0.0181     0.0000 </r>
        <r>     6.9816     0.0144     0.0213     0.0000 </r>
        <r>     7.0563     0.0168     0.0249     0.0000 </r>
        <r>     7.1310     0.0197     0.0292     0.0000 </r>
        <r>     7.2057     0.0346     0.0390     0.0000 </r>
        <r>     7.2804     0.0624     0.0568     0.0000 </r>
        <r>     7.3551     0.0990     0.0812     0.0000 </r>
        <r>     7.4297     0.1411     0.1102     0.0000 </r>
        <r>     7.5044     0.1639     0.1296     0.0000 </r>
        <r>     7.5791     0.1625     0.1368     0.0000 </r>
        <r>     7.6538     0.1369     0.1318     0.0000 </r>
        <r>     7.7285     0.1285     0.1313     0.0000 </r>
        <r>     7.8031     0.1165     0.1232     0.0000 </r>
        <r>     7.8778     0.1001     0.1105     0.0000 </r>
        <r>     7.9525     0.0857     0.0991     0.0000 </r>
        <r>     8.0272     0.0732     0.0892     0.0000 </r>
        <r>     8.1019     0.0626     0.0806     0.0000 </r>
        <r>     8.1766     0.0539     0.0735     0.0000 </r>
        <r>     8.2512     0.0465     0.0673     0.0000 </r>
        <r>     8.3259     0.0402     0.0621     0.0000 </r>
        <r>     8.4006     0.0349     0.0577     0.0000 </r>
        <r>     8.4753     0.0306     0.0542     0.0000 </r>
        <r>     8.5500     0.0270     0.0517     0.0000 </r>
        <r>     8.6247     0.0239     0.0505     0.0000 </r>
        <r>     8.6993     0.0213     0.0504     0.0000 </r>
        <r>     8.7740     0.0193     0.0518     0.0000 </r>
        <r>     8.8487     0.0181     0.0562     0.0000 </r>
        <r>     8.9234     0.0179     0.0629     0.0000 </r>
        <r>     8.9981     0.0224     0.0904     0.0000 </r>
        <r>     9.0727     0.0223     0.1038     0.0000 </r>
        <r>     9.1474     0.0290     0.1392     0.0000 </r>
        <r>     9.2221     0.0363     0.1723     0.0000 </r>
        <r>     9.2968     0.0443     0.2031     0.0000 </r>
        <r>     9.3715     0.0528     0.2316     0.0000 </r>
        <r>     9.4462     0.0596     0.2512     0.0000 </r>
        <r>     9.5208     0.0745     0.2833     0.0000 </r>
        <r>     9.5955     0.0994     0.3472     0.0000 </r>
        <r>     9.6702     0.0718     0.2614     0.0000 </r>
        <r>     9.7449     0.0635     0.2307     0.0000 </r>
        <r>     9.8196     0.0602     0.2158     0.0000 </r>
        <r>     9.8942     0.0550     0.1967     0.0000 </r>
        <r>     9.9689     0.0548     0.1948     0.0000 </r>
        <r>    10.0436     0.0796     0.2481     0.0000 </r>
        <r>    10.1183     0.0664     0.2342     0.0000 </r>
        <r>    10.1930     0.0676     0.2406     0.0000 </r>
        <r>    10.2677     0.0705     0.2489     0.0000 </r>
        <r>    10.3423     0.0677     0.2399     0.0000 </r>
        <r>    10.4170     0.0440     0.1463     0.0000 </r>
        <r>    10.4917     0.0203     0.0554     0.0000 </r>
        <r>    10.5664     0.0213     0.0574     0.0000 </r>
        <r>    10.6411     0.0229     0.0622     0.0000 </r>
        <r>    10.7158     0.0253     0.0699     0.0000 </r>
        <r>    10.7904     0.0283     0.0804     0.0000 </r>
        <r>    10.8651     0.0321     0.0938     0.0000 </r>
        <r>    10.9398     0.0365     0.1101     0.0000 </r>
        <r>    11.0145     0.0413     0.1259     0.0000 </r>
        <r>    11.0892     0.0434     0.1230     0.0000 </r>
        <r>    11.1638     0.0440     0.1190     0.0000 </r>
        <r>    11.2385     0.0431     0.1139     0.0000 </r>
        <r>    11.3132     0.0401     0.1070     0.0000 </r>
        <r>    11.3879     0.0333     0.0961     0.0000 </r>
        <r>    11.4626     0.0227     0.0810     0.0000 </r>
        <r>    11.5373     0.0194     0.0771     0.0000 </r>
        <r>    11.6119     0.0190     0.0772     0.0000 </r>
        <r>    11.6866     0.0185     0.0773     0.0000 </r>
        <r>    11.7613     0.0181     0.0775     0.0000 </r>
        <r>    11.8360     0.0177     0.0778     0.0000 </r>
        <r>    11.9107     0.0173     0.0781     0.0000 </r>
        <r>    11.9853     0.0169     0.0784     0.0000 </r>
        <r>    12.0600     0.0165     0.0788     0.0000 </r>
        <r>    12.1347     0.0161     0.0792     0.0000 </r>
        <r>    12.2094     0.0158     0.0797     0.0000 </r>
        <r>    12.2841     0.0154     0.0803     0.0000 </r>
        <r>    12.3588     0.0151     0.0808     0.0000 </r>
        <r>    12.4334     0.0148     0.0815     0.0000 </r>
        <r>    12.5081     0.0145     0.0822     0.0000 </r>
        <r>    12.5828     0.0142     0.0829     0.0000 </r>
        <r>    12.6575     0.0139     0.0837     0.0000 </r>
        <r>    12.7322     0.0137     0.0846     0.0000 </r>
        <r>    12.8069     0.0134     0.0854     0.0000 </r>
        <r>    12.8815     0.0132     0.0864     0.0000 </r>
        <r>    12.9562     0.0130     0.0874     0.0000 </r>
        <r>    13.0309     0.0127     0.0884     0.0000 </r>
        <r>    13.1056     0.0134     0.0954     0.0000 </r>
        <r>    13.1803     0.0214     0.1495     0.0000 </r>
        <r>    13.2549     0.0219     0.1503     0.0000 </r>
        <r>    13.3296     0.0256     0.1617     0.0000 </r>
        <r>    13.4043     0.0170     0.1033     0.0000 </r>
        <r>    13.4790     0.0145     0.0885     0.0000 </r>
        <r>    13.5537     0.0126     0.0778     0.0000 </r>
        <r>    13.6284     0.0108     0.0727     0.0000 </r>
        <r>    13.7030     0.0091     0.0720     0.0000 </r>
        <r>    13.7777     0.0077     0.0677     0.0000 </r>
        <r>    13.8524     0.0066     0.0597     0.0000 </r>
        <r>    13.9271     0.0058     0.0482     0.0000 </r>
        <r>    14.0018     0.0053     0.0331     0.0000 </r>
        <r>    14.0765     0.0081     0.0620     0.0000 </r>
        <r>    14.1511     0.0035     0.0284     0.0000 </r>
        <r>    14.2258     0.0000     0.0000     0.0000 </r>
        <r>    14.3005     0.0000     0.0000     0.0000 </r>
        <r>    14.3752     0.0000     0.0000     0.0000 </r>
        <r>    14.4499     0.0000     0.0000     0.0000 </r>
        <r>    14.5245     0.0000     0.0000     0.0000 </r>
        <r>    14.5992     0.0000     0.0000     0.0000 </r>
        <r>    14.6739     0.0000     0.0000     0.0000 </r>
        <r>    14.7486     0.0000     0.0000     0.0000 </r>
        <r>    14.8233     0.0000     0.0000     0.0000 </r>
        <r>    14.8980     0.0000     0.0000     0.0000 </r>
        <r>    14.9726     0.0000     0.0000     0.0000 </r>
        <r>    15.0473     0.0000     0.0000     0.0000 </r>
        <r>    15.1220     0.0000     0.0000     0.0000 </r>
        <r>    15.1967     0.0000     0.0000     0.0000 </r>
       </set>
      </set>
      <set comment="ion 2">
       <set comment="spin 1">
        <r>    -7.2080     0.0000     0.0000     0.0000 </r>
        <r>    -7.1333     0.0000     0.0000     0.0000 </r>
        <r>    -7.0586     0.0000     0.0000     0.0000 </r>
        <r>    -6.9839     0.0000     0.0000     0.0000 </r>
        <r>    -6.9092     0.0000     0.0000     0.0000 </r>
        <r>    -6.8346     0.0000     0.0000     0.0000 </r>
        <r>    -6.7599     0.0000     0.0000     0.0000 </r>
        <r>    -6.6852     0.0000     0.0000     0.0000 </r>
        <r>    -6.6105     0.0000     0.0000     0.0000 </r>
        <r>    -6.5358     0.0000     0.0000     0.0000 </r>
        <r>    -6.4612     0.0000     0.0000     0.0000 </r>
        <r>    -6.3865     0.0000     0.0000     0.0000 </r>
        <r>    -6.3118     0.0000     0.0000     0.0000 </r>
        <r>    -6.2371     0.0000     0.0000     0.0000 </r>
        <r>    -6.1624     0.0002     0.0000     0.0000 </r>
        <r>    -6.0877     0.0024     0.0001     0.0000 </r>
        <r>    -6.0131     0.0072     0.0002     0.0000 </r>
        <r>    -5.9384     0.0145     0.0003     0.0000 </r>
        <r>    -5.8637     0.0244     0.0005     0.0000 </r>
        <r>    -5.7890     0.0368     0.0008     0.0000 </r>
        <r>    -5.7143     0.0518     0.0011     0.0000 </r>
        <r>    -5.6396     0.0551     0.0015     0.0000 </r>
        <r>    -5.5650     0.0523     0.0019     0.0000 </r>
        <r>    -5.4903     0.0546     0.0023     0.0000 </r>
        <r>    -5.4156     0.0585     0.0027     0.0000 </r>
        <r>    -5.3409     0.0625     0.0030     0.0000 </r>
        <r>    -5.2662     0.0667     0.0034     0.0000 </r>
        <r>    -5.1916     0.0711     0.0038     0.0000 </r>
        <r>    -5.1169     0.0755     0.0042     0.0000 </r>
        <r>    -5.0422     0.0801     0.0046     0.0000 </r>
        <r>    -4.9675     0.0849     0.0050     0.0000 </r>
        <r>    -4.8928     0.0898     0.0054     0.0000 </r>
        <r>    -4.8181     0.0948     0.0059     0.0000 </r>
        <r>    -4.7435     0.0997     0.0064     0.0000 </r>
        <r>    -4.6688     0.1046     0.0071     0.0000 </r>
        <r>    -4.5941     0.1094     0.0078     0.0000 </r>
        <r>    -4.5194     0.1142     0.0086     0.0000 </r>
        <r>    -4.4447     0.1190     0.0095     0.0000 </r>
        <r>    -4.3701     0.1243     0.0105     0.0000 </r>
        <r>    -4.2954     0.1415     0.0122     0.0000 </r>
        <r>    -4.2207     0.1584     0.0139     0.0000 </r>
        <r>    -4.1460     0.1722     0.0153     0.0000 </r>
        <r>    -4.0713     0.1829     0.0165     0.0000 </r>
        <r>    -3.9966     0.1904     0.0175     0.0000 </r>
        <r>    -3.9220     0.1948     0.0182     0.0000 </r>
        <r>    -3.8473     0.1961     0.0187     0.0000 </r>
        <r>    -3.7726     0.1942     0.0189     0.0000 </r>
        <r>    -3.6979     0.1892     0.0190     0.0000 </r>
        <r>    -3.6232     0.1811     0.0187     0.0000 </r>
        <r>    -3.5485     0.1698     0.0183     0.0000 </r>
        <r>    -3.4739     0.1776     0.0200     0.0000 </r>
        <r>    -3.3992     0.1866     0.0218     0.0000 </r>
        <r>    -3.3245     0.1893     0.0229     0.0000 </r>
        <r>    -3.2498     0.1857     0.0231     0.0000 </r>
        <r>    -3.1751     0.1758     0.0226     0.0000 </r>
        <r>    -3.1005     0.2568     0.0351     0.0000 </r>
        <r>    -3.0258     0.1847     0.0254     0.0000 </r>
        <r>    -2.9511     0.1584     0.0220     0.0000 </r>
        <r>    -2.8764     0.1335     0.0187     0.0000 </r>
        <r>    -2.8017     0.1100     0.0156     0.0000 </r>
        <r>    -2.7270     0.0880     0.0126     0.0000 </r>
        <r>    -2.6524     0.0674     0.0098     0.0000 </r>
        <r>    -2.5777     0.0483     0.0071     0.0000 </r>
        <r>    -2.5030     0.0306     0.0046     0.0000 </r>
        <r>    -2.4283     0.0143     0.0022     0.0000 </r>
        <r>    -2.3536     0.0000     0.0000     0.0000 </r>
        <r>    -2.2789     0.0000     0.0000     0.0000 </r>
        <r>    -2.2043     0.0000     0.0000     0.0000 </r>
        <r>    -2.1296     0.0000     0.0000     0.0000 </r>
        <r>    -2.0549     0.0000     0.0000     0.0000 </r>
        <r>    -1.9802     0.0000     0.0000     0.0000 </r>
        <r>    -1.9055     0.0000     0.0000     0.0000 </r>
        <r>    -1.8309     0.0000     0.0000     0.0000 </r>
        <r>    -1.7562     0.0000     0.0000     0.0000 </r>
        <r>    -1.6815     0.0110     0.0034     0.0000 </r>
        <r>    -1.6068     0.0243     0.0077     0.0000 </r>
        <r>    -1.5321     0.0395     0.0128     0.0000 </r>
        <r>    -1.4574     0.0566     0.0188     0.0000 </r>
        <r>    -1.3828     0.0757     0.0257     0.0000 </r>
        <r>    -1.3081     0.0967     0.0334     0.0000 </r>
        <r>    -1.2334     0.1196     0.0419     0.0000 </r>
        <r>    -1.1587     0.1445     0.0513     0.0000 </r>
        <r>    -1.0840     0.1713     0.0615     0.0000 </r>
        <r>    -1.0094     0.2000     0.0725     0.0000 </r>
        <r>    -0.9347     0.3582     0.1544     0.0000 </r>
        <r>    -0.8600     0.1968     0.0935     0.0000 </r>
        <r>    -0.7853     0.1602     0.0852     0.0000 </r>
        <r>    -0.7106     0.1550     0.0833     0.0000 </r>
        <r>    -0.6359     0.1409     0.0752     0.0000 </r>
        <r>    -0.5613     0.1200     0.0623     0.0000 </r>
        <r>    -0.4866     0.1126     0.0591     0.0000 </r>
        <r>    -0.4119     0.1063     0.0562     0.0000 </r>
        <r>    -0.3372     0.1003     0.0535     0.0000 </r>
        <r>    -0.2625     0.0944     0.0509     0.0000 </r>
        <r>    -0.1878     0.0887     0.0484     0.0000 </r>
        <r>    -0.1132     0.0832     0.0460     0.0000 </r>
        <r>    -0.0385     0.0779     0.0437     0.0000 </r>
        <r>     0.0362     0.0727     0.0414     0.0000 </r>
        <r>     0.1109     0.0678     0.0393     0.0000 </r>
        <r>     0.1856     0.0631     0.0373     0.0000 </r>
        <r>     0.2602     0.0586     0.0354     0.0000 </r>
        <r>     0.3349     0.0542     0.0336     0.0000 </r>
        <r>     0.4096     0.0501     0.0317     0.0000 </r>
        <r>     0.4843     0.0463     0.0300     0.0000 </r>
        <r>     0.5590     0.0429     0.0283     0.0000 </r>
        <r>     0.6337     0.0397     0.0269     0.0000 </r>
        <r>     0.7083     0.0369     0.0256     0.0000 </r>
        <r>     0.7830     0.0345     0.0244     0.0000 </r>
        <r>     0.8577     0.0323     0.0233     0.0000 </r>
        <r>     0.9324     0.0305     0.0224     0.0000 </r>
        <r>     1.0071     0.0290     0.0217     0.0000 </r>
        <r>     1.0817     0.0278     0.0211     0.0000 </r>
        <r>     1.1564     0.0270     0.0206     0.0000 </r>
        <r>     1.2311     0.0263     0.0202     0.0000 </r>
        <r>     1.3058     0.0257     0.0199     0.0000 </r>
        <r>     1.3805     0.0251     0.0196     0.0000 </r>
        <r>     1.4552     0.0245     0.0192     0.0000 </r>
        <r>     1.5298     0.0239     0.0189     0.0000 </r>
        <r>     1.6045     0.0233     0.0186     0.0000 </r>
        <r>     1.6792     0.0280     0.1897     0.0000 </r>
        <r>     1.7539     0.0344     0.1939     0.0000 </r>
        <r>     1.8286     0.0351     0.1725     0.0000 </r>
        <r>     1.9033     0.0369     0.1817     0.0000 </r>
        <r>     1.9779     0.0382     0.1882     0.0000 </r>
        <r>     2.0526     0.0392     0.1921     0.0000 </r>
        <r>     2.1273     0.0399     0.1932     0.0000 </r>
        <r>     2.2020     0.0401     0.1918     0.0000 </r>
        <r>     2.2767     0.0393     0.1863     0.0000 </r>
        <r>     2.3513     0.0375     0.1780     0.0000 </r>
        <r>     2.4260     0.0358     0.1701     0.0000 </r>
        <r>     2.5007     0.0342     0.1624     0.0000 </r>
        <r>     2.5754     0.0327     0.1551     0.0000 </r>
        <r>     2.6501     0.0304     0.1476     0.0000 </r>
        <r>     2.7248     0.0265     0.2664     0.0000 </r>
        <r>     2.7994     0.0223     0.2457     0.0000 </r>
        <r>     2.8741     0.0196     0.2788     0.0000 </r>
        <r>     2.9488     0.0179     0.3290     0.0000 </r>
        <r>     3.0235     0.0171     0.4500     0.0000 </r>
        <r>     3.0982     0.0159     0.3029     0.0000 </r>
        <r>     3.1729     0.0148     0.2992     0.0000 </r>
        <r>     3.2475     0.0138     0.2949     0.0000 </r>
        <r>     3.3222     0.0128     0.2902     0.0000 </r>
        <r>     3.3969     0.0118     0.2850     0.0000 </r>
        <r>     3.4716     0.0109     0.2793     0.0000 </r>
        <r>     3.5463     0.0100     0.2731     0.0000 </r>
        <r>     3.6209     0.0092     0.2664     0.0000 </r>
[...]
        <r>     9.7449     0.0635     0.2307     0.0000 </r>
        <r>     9.8196     0.0602     0.2158     0.0000 </r>
        <r>     9.8942     0.0550     0.1967     0.0000 </r>
        <r>     9.9689     0.0548     0.1948     0.0000 </r>
        <r>    10.0436     0.0796     0.2481     0.0000 </r>
        <r>    10.1183     0.0664     0.2342     0.0000 </r>
        <r>    10.1930     0.0676     0.2406     0.0000 </r>
        <r>    10.2677     0.0705     0.2489     0.0000 </r>
        <r>    10.3423     0.0677     0.2399     0.0000 </r>
        <r>    10.4170     0.0440     0.1463     0.0000 </r>
        <r>    10.4917     0.0203     0.0554     0.0000 </r>
        <r>    10.5664     0.0213     0.0574     0.0000 </r>
        <r>    10.6411     0.0229     0.0622     0.0000 </r>
        <r>    10.7158     0.0253     0.0699     0.0000 </r>
        <r>    10.7904     0.0283     0.0804     0.0000 </r>
        <r>    10.8651     0.0321     0.0938     0.0000 </r>
        <r>    10.9398     0.0365     0.1101     0.0000 </r>
        <r>    11.0145     0.0413     0.1259     0.0000 </r>
        <r>    11.0892     0.0434     0.1230     0.0000 </r>
        <r>    11.1638     0.0440     0.1190     0.0000 </r>
        <r>    11.2385     0.0431     0.1139     0.0000 </r>
        <r>    11.3132     0.0401     0.1070     0.0000 </r>
        <r>    11.3879     0.0333     0.0961     0.0000 </r>
        <r>    11.4626     0.0227     0.0810     0.0000 </r>
        <r>    11.5373     0.0194     0.0771     0.0000 </r>
        <r>    11.6119     0.0190     0.0772     0.0000 </r>
        <r>    11.6866     0.0185     0.0773     0.0000 </r>
        <r>    11.7613     0.0181     0.0775     0.0000 </r>
        <r>    11.8360     0.0177     0.0778     0.0000 </r>
        <r>    11.9107     0.0173     0.0781     0.0000 </r>
        <r>    11.9853     0.0169     0.0784     0.0000 </r>
        <r>    12.0600     0.0165     0.0788     0.0000 </r>
        <r>    12.1347     0.0161     0.0792     0.0000 </r>
        <r>    12.2094     0.0158     0.0797     0.0000 </r>
        <r>    12.2841     0.0154     0.0803     0.0000 </r>
        <r>    12.3588     0.0151     0.0808     0.0000 </r>
        <r>    12.4334     0.0148     0.0815     0.0000 </r>
        <r>    12.5081     0.0145     0.0822     0.0000 </r>
        <r>    12.5828     0.0142     0.0829     0.0000 </r>
        <r>    12.6575     0.0139     0.0837     0.0000 </r>
        <r>    12.7322     0.0137     0.0846     0.0000 </r>
        <r>    12.8069     0.0134     0.0854     0.0000 </r>
        <r>    12.8815     0.0132     0.0864     0.0000 </r>
        <r>    12.9562     0.0130     0.0874     0.0000 </r>
        <r>    13.0309     0.0127     0.0884     0.0000 </r>
        <r>    13.1056     0.0134     0.0954     0.0000 </r>
        <r>    13.1803     0.0214     0.1495     0.0000 </r>
        <r>    13.2549     0.0219     0.1503     0.0000 </r>
        <r>    13.3296     0.0256     0.1617     0.0000 </r>
        <r>    13.4043     0.0170     0.1033     0.0000 </r>
        <r>    13.4790     0.0145     0.0885     0.0000 </r>
        <r>    13.5537     0.0126     0.0778     0.0000 </r>
        <r>    13.6284     0.0108     0.0727     0.0000 </r>
        <r>    13.7030     0.0091     0.0720     0.0000 </r>
        <r>    13.7777     0.0077     0.0677     0.0000 </r>
        <r>    13.8524     0.0066     0.0597     0.0000 </r>
        <r>    13.9271     0.0058     0.0482     0.0000 </r>
        <r>    14.0018     0.0053     0.0331     0.0000 </r>
        <r>    14.0765     0.0081     0.0620     0.0000 </r>
        <r>    14.1511     0.0035     0.0284     0.0000 </r>
        <r>    14.2258     0.0000     0.0000     0.0000 </r>
        <r>    14.3005     0.0000     0.0000     0.0000 </r>
        <r>    14.3752     0.0000     0.0000     0.0000 </r>
        <r>    14.4499     0.0000     0.0000     0.0000 </r>
        <r>    14.5245     0.0000     0.0000     0.0000 </r>
        <r>    14.5992     0.0000     0.0000     0.0000 </r>
        <r>    14.6739     0.0000     0.0000     0.0000 </r>
        <r>    14.7486     0.0000     0.0000     0.0000 </r>
        <r>    14.8233     0.0000     0.0000     0.0000 </r>
        <r>    14.8980     0.0000     0.0000     0.0000 </r>
        <r>    14.9726     0.0000     0.0000     0.0000 </r>
        <r>    15.0473     0.0000     0.0000     0.0000 </r>
        <r>    15.1220     0.0000     0.0000     0.0000 </r>
        <r>    15.1967     0.0000     0.0000     0.0000 </r>
       </set>
      </set>
     </set>
    </array>
   </partial>
  </dos>
  <projected>
   <eigenvalues>
    <array>
     <dimension dim="1">band</dimension>
     <dimension dim="2">kpoint</dimension>
     <dimension dim="3">spin</dimension>
     <field>eigene</field>
     <field>occ</field>
     <set>
      <set comment="spin 1">
       <set comment="kpoint 1">
        <r>   -6.1896    1.0000 </r>
        <r>    5.6161    1.0000 </r>
        <r>    5.6161    1.0000 </r>
        <r>    5.6161    1.0000 </r>
        <r>    8.1648    0.0000 </r>
        <r>    8.1648    0.0000 </r>
        <r>    8.1648    0.0000 </r>
        <r>    8.7298    0.0000 </r>
       </set>
       <set comment="kpoint 2">
        <r>   -5.6823    1.0000 </r>
        <r>    2.6338    1.0000 </r>
        <r>    5.0482    1.0000 </r>
        <r>    5.0482    1.0000 </r>
        <r>    7.7586    0.0000 </r>
        <r>    8.9524    0.0000 </r>
        <r>    8.9524    0.0000 </r>
        <r>   11.4794    0.0000 </r>
       </set>
       <set comment="kpoint 3">
        <r>   -4.3511    1.0000 </r>
        <r>   -0.5689    1.0000 </r>
        <r>    4.5083    1.0000 </r>
        <r>    4.5083    1.0000 </r>
        <r>    7.1558    0.0000 </r>
        <r>    9.0291    0.0000 </r>
        <r>    9.0291    0.0000 </r>
        <r>   13.4128    0.0000 </r>
       </set>
       <set comment="kpoint 4">
        <r>   -5.5074    1.0000 </r>
        <r>    2.9799    1.0000 </r>
        <r>    4.1616    1.0000 </r>
        <r>    4.1616    1.0000 </r>
        <r>    7.0870    0.0000 </r>
        <r>    9.4597    0.0000 </r>
        <r>   10.4486    0.0000 </r>
        <r>   10.4486    0.0000 </r>
       </set>
       <set comment="kpoint 5">
        <r>   -4.3900    1.0000 </r>
        <r>    0.3540    1.0000 </r>
        <r>    3.0395    1.0000 </r>
        <r>    3.6617    1.0000 </r>
        <r>    7.3979    0.0000 </r>
        <r>    9.6782    0.0000 </r>
        <r>   10.4671    0.0000 </r>
        <r>   11.0033    0.0000 </r>
       </set>
       <set comment="kpoint 6">
        <r>   -3.5306    1.0000 </r>
        <r>   -1.0023    1.0000 </r>
        <r>    2.2477    1.0000 </r>
        <r>    3.9362    1.0000 </r>
        <r>    7.6681    0.0000 </r>
        <r>   10.1551    0.0000 </r>
        <r>   10.3878    0.0000 </r>
        <r>   13.1002    0.0000 </r>
       </set>
       <set comment="kpoint 7">
        <r>   -4.8678    1.0000 </r>
        <r>    1.1699    1.0000 </r>
        <r>    2.6837    1.0000 </r>
        <r>    4.7847    1.0000 </r>
        <r>    8.4572    0.0000 </r>
        <r>    9.5721    0.0000 </r>
        <r>    9.8805    0.0000 </r>
        <r>   11.2611    0.0000 </r>
       </set>
       <set comment="kpoint 8">
        <r>   -3.5301    1.0000 </r>
        <r>   -0.5193    1.0000 </r>
        <r>    2.9774    1.0000 </r>
        <r>    2.9774    1.0000 </r>
        <r>    6.2305    0.0000 </r>
        <r>    6.9618    0.0000 </r>
        <r>   14.0040    0.0000 </r>
        <r>   14.0040    0.0000 </r>
       </set>
       <set comment="kpoint 9">
        <r>   -2.3565    1.0000 </r>
        <r>   -1.7537    1.0000 </r>
        <r>    1.6493    1.0000 </r>
        <r>    3.0932    1.0000 </r>
        <r>    6.6760    0.0000 </r>
        <r>    8.7593    0.0000 </r>
        <r>   13.5985    0.0000 </r>
        <r>   14.1783    0.0000 </r>
       </set>
       <set comment="kpoint 10">
        <r>   -3.1044    1.0000 </r>
        <r>   -0.8961    1.0000 </r>
        <r>    1.7292    1.0000 </r>
        <r>    2.6952    1.0000 </r>
        <r>    8.9925    0.0000 </r>
        <r>    9.3915    0.0000 </r>
        <r>    9.9765    0.0000 </r>
        <r>   13.3074    0.0000 </r>
       </set>
      </set>
     </set>
    </array>
   </eigenvalues>
   <array>
    <dimension dim="1">ion</dimension>
    <dimension dim="2">band</dimension>
    <dimension dim="3">kpoint</dimension>
    <dimension dim="4">spin</dimension>
    <field>  s  </field>
    <field>  p  </field>
    <field>  d  </field>
    <set>
     <set comment="spin1">
      <set comment="kpoint 1">
       <set comment="band 1">
        <r>  0.2117  0.0000  0.0000 </r>
        <r>  0.2117  0.0000  0.0000 </r>
       </set>
       <set comment="band 2">
        <r>  0.0000  0.2136  0.0000 </r>
        <r>  0.0000  0.2136  0.0000 </r>
       </set>
       <set comment="band 3">
        <r>  0.0000  0.2136  0.0000 </r>
        <r>  0.0000  0.2136  0.0000 </r>
       </set>
       <set comment="band 4">
        <r>  0.0000  0.2136  0.0000 </r>
        <r>  0.0000  0.2136  0.0000 </r>
       </set>
       <set comment="band 5">
        <r>  0.0000  0.1505  0.0000 </r>
        <r>  0.0000  0.1505  0.0000 </r>
       </set>
       <set comment="band 6">
        <r>  0.0000  0.1505  0.0000 </r>
        <r>  0.0000  0.1505  0.0000 </r>
       </set>
       <set comment="band 7">
        <r>  0.0000  0.1505  0.0000 </r>
        <r>  0.0000  0.1505  0.0000 </r>
       </set>
       <set comment="band 8">
        <r>  0.3585  0.0000  0.0000 </r>
        <r>  0.3585  0.0000  0.0000 </r>
       </set>
      </set>
      <set comment="kpoint 2">
       <set comment="band 1">
        <r>  0.2097  0.0052  0.0000 </r>
        <r>  0.2097  0.0052  0.0000 </r>
       </set>
       <set comment="band 2">
        <r>  0.0874  0.1294  0.0000 </r>
        <r>  0.0874  0.1294  0.0000 </r>
       </set>
       <set comment="band 3">
        <r>  0.0000  0.2104  0.0000 </r>
        <r>  0.0000  0.2104  0.0000 </r>
       </set>
       <set comment="band 4">
        <r>  0.0000  0.2104  0.0000 </r>
        <r>  0.0000  0.2104  0.0000 </r>
       </set>
       <set comment="band 5">
        <r>  0.1423  0.0615  0.0000 </r>
        <r>  0.1423  0.0615  0.0000 </r>
       </set>
       <set comment="band 6">
        <r>  0.0000  0.1495  0.0000 </r>
        <r>  0.0000  0.1495  0.0000 </r>
       </set>
       <set comment="band 7">
        <r>  0.0000  0.1495  0.0000 </r>
        <r>  0.0000  0.1495  0.0000 </r>
       </set>
       <set comment="band 8">
        <r>  0.1435  0.1329  0.0000 </r>
        <r>  0.1435  0.1329  0.0000 </r>
       </set>
      </set>
      <set comment="kpoint 3">
       <set comment="band 1">
        <r>  0.2137  0.0142  0.0000 </r>
        <r>  0.2137  0.0142  0.0000 </r>
       </set>
       <set comment="band 2">
        <r>  0.1070  0.0937  0.0000 </r>
        <r>  0.1070  0.0937  0.0000 </r>
       </set>
       <set comment="band 3">
        <r>  0.0000  0.2142  0.0000 </r>
        <r>  0.0000  0.2142  0.0000 </r>
       </set>
       <set comment="band 4">
        <r>  0.0000  0.2142  0.0000 </r>
        <r>  0.0000  0.2142  0.0000 </r>
       </set>
       <set comment="band 5">
        <r>  0.1803  0.0252  0.0000 </r>
        <r>  0.1803  0.0252  0.0000 </r>
       </set>
       <set comment="band 6">
        <r>  0.0000  0.1021  0.0000 </r>
        <r>  0.0000  0.1021  0.0000 </r>
       </set>
       <set comment="band 7">
        <r>  0.0000  0.1021  0.0000 </r>
        <r>  0.0000  0.1021  0.0000 </r>
       </set>
       <set comment="band 8">
        <r>  0.0035  0.0723  0.0000 </r>
        <r>  0.0035  0.0723  0.0000 </r>
       </set>
      </set>
      <set comment="kpoint 4">
       <set comment="band 1">
        <r>  0.2084  0.0073  0.0000 </r>
        <r>  0.2084  0.0073  0.0000 </r>
       </set>
       <set comment="band 2">
        <r>  0.1401  0.1119  0.0000 </r>
        <r>  0.1401  0.1119  0.0000 </r>
       </set>
       <set comment="band 3">
        <r>  0.0000  0.1973  0.0000 </r>
        <r>  0.0000  0.1973  0.0000 </r>
       </set>
       <set comment="band 4">
        <r>  0.0000  0.1973  0.0000 </r>
        <r>  0.0000  0.1973  0.0000 </r>
       </set>
       <set comment="band 5">
        <r>  0.0347  0.0919  0.0000 </r>
        <r>  0.0347  0.0919  0.0000 </r>
       </set>
       <set comment="band 6">
        <r>  0.0784  0.0549  0.0000 </r>
        <r>  0.0784  0.0549  0.0000 </r>
       </set>
       <set comment="band 7">
        <r>  0.0000  0.1664  0.0000 </r>
        <r>  0.0000  0.1664  0.0000 </r>
       </set>
       <set comment="band 8">
        <r>  0.0000  0.1664  0.0000 </r>
        <r>  0.0000  0.1664  0.0000 </r>
       </set>
      </set>
      <set comment="kpoint 5">
       <set comment="band 1">
        <r>  0.2066  0.0176  0.0000 </r>
        <r>  0.2066  0.0176  0.0000 </r>
       </set>
       <set comment="band 2">
        <r>  0.1420  0.0878  0.0000 </r>
        <r>  0.1420  0.0878  0.0000 </r>
       </set>
       <set comment="band 3">
        <r>  0.0315  0.1595  0.0000 </r>
        <r>  0.0315  0.1595  0.0000 </r>
       </set>
       <set comment="band 4">
        <r>  0.0000  0.1987  0.0000 </r>
        <r>  0.0000  0.1987  0.0000 </r>
       </set>
       <set comment="band 5">
        <r>  0.0452  0.0705  0.0000 </r>
        <r>  0.0452  0.0705  0.0000 </r>
       </set>
       <set comment="band 6">
        <r>  0.0380  0.0744  0.0000 </r>
        <r>  0.0380  0.0744  0.0000 </r>
       </set>
       <set comment="band 7">
        <r>  0.0530  0.1179  0.0000 </r>
        <r>  0.0530  0.1179  0.0000 </r>
       </set>
       <set comment="band 8">
        <r>  0.0000  0.1267  0.0000 </r>
        <r>  0.0000  0.1267  0.0000 </r>
       </set>
      </set>
      <set comment="kpoint 6">
       <set comment="band 1">
        <r>  0.2174  0.0198  0.0000 </r>
        <r>  0.2174  0.0198  0.0000 </r>
       </set>
       <set comment="band 2">
        <r>  0.1306  0.0808  0.0000 </r>
        <r>  0.1306  0.0808  0.0000 </r>
       </set>
       <set comment="band 3">
        <r>  0.0350  0.1484  0.0000 </r>
        <r>  0.0350  0.1484  0.0000 </r>
       </set>
       <set comment="band 4">
        <r>  0.0000  0.2050  0.0000 </r>
        <r>  0.0000  0.2050  0.0000 </r>
       </set>
       <set comment="band 5">
        <r>  0.0632  0.0566  0.0000 </r>
        <r>  0.0632  0.0566  0.0000 </r>
       </set>
       <set comment="band 6">
        <r>  0.0561  0.1016  0.0000 </r>
        <r>  0.0561  0.1016  0.0000 </r>
       </set>
       <set comment="band 7">
        <r>  0.0000  0.1113  0.0000 </r>
        <r>  0.0000  0.1113  0.0000 </r>
       </set>
       <set comment="band 8">
        <r>  0.0156  0.1074  0.0000 </r>
        <r>  0.0156  0.1074  0.0000 </r>
       </set>
      </set>
      <set comment="kpoint 7">
       <set comment="band 1">
        <r>  0.2077  0.0130  0.0000 </r>
        <r>  0.2077  0.0130  0.0000 </r>
       </set>
       <set comment="band 2">
        <r>  0.1383  0.0970  0.0000 </r>
        <r>  0.1383  0.0970  0.0000 </r>
       </set>
       <set comment="band 3">
        <r>  0.0130  0.1604  0.0000 </r>
        <r>  0.0130  0.1604  0.0000 </r>
       </set>
       <set comment="band 4">
        <r>  0.0000  0.2145  0.0000 </r>
        <r>  0.0000  0.2145  0.0000 </r>
       </set>
       <set comment="band 5">
        <r>  0.0842  0.0819  0.0000 </r>
        <r>  0.0842  0.0819  0.0000 </r>
       </set>
       <set comment="band 6">
        <r>  0.0000  0.1489  0.0000 </r>
        <r>  0.0000  0.1489  0.0000 </r>
       </set>
       <set comment="band 7">
        <r>  0.0313  0.1156  0.0000 </r>
        <r>  0.0313  0.1156  0.0000 </r>
       </set>
       <set comment="band 8">
        <r>  0.0691  0.1001  0.0000 </r>
        <r>  0.0691  0.1001  0.0000 </r>
       </set>
      </set>
      <set comment="kpoint 8">
       <set comment="band 1">
        <r>  0.1995  0.0285  0.0000 </r>
        <r>  0.1995  0.0285  0.0000 </r>
       </set>
       <set comment="band 2">
        <r>  0.1842  0.0620  0.0000 </r>
        <r>  0.1842  0.0620  0.0000 </r>
       </set>
       <set comment="band 3">
        <r>  0.0000  0.1947  0.0000 </r>
        <r>  0.0000  0.1947  0.0000 </r>
       </set>
       <set comment="band 4">
        <r>  0.0000  0.1947  0.0000 </r>
        <r>  0.0000  0.1947  0.0000 </r>
       </set>
       <set comment="band 5">
        <r>  0.0522  0.0473  0.0000 </r>
        <r>  0.0522  0.0473  0.0000 </r>
       </set>
       <set comment="band 6">
        <r>  0.0466  0.0317  0.0000 </r>
        <r>  0.0466  0.0317  0.0000 </r>
       </set>
       <set comment="band 7">
        <r>  0.0000  0.1687  0.0000 </r>
        <r>  0.0000  0.1687  0.0000 </r>
       </set>
       <set comment="band 8">
        <r>  0.0000  0.1687  0.0000 </r>
        <r>  0.0000  0.1687  0.0000 </r>
       </set>
      </set>
      <set comment="kpoint 9">
       <set comment="band 1">
        <r>  0.2084  0.0351  0.0000 </r>
        <r>  0.2084  0.0351  0.0000 </r>
       </set>
       <set comment="band 2">
        <r>  0.1871  0.0500  0.0000 </r>
        <r>  0.1871  0.0500  0.0000 </r>
       </set>
       <set comment="band 3">
        <r>  0.0006  0.1580  0.0000 </r>
        <r>  0.0006  0.1580  0.0000 </r>
       </set>
       <set comment="band 4">
        <r>  0.0000  0.1966  0.0000 </r>
        <r>  0.0000  0.1966  0.0000 </r>
       </set>
       <set comment="band 5">
        <r>  0.0517  0.0398  0.0000 </r>
        <r>  0.0517  0.0398  0.0000 </r>
       </set>
       <set comment="band 6">
        <r>  0.0308  0.0803  0.0000 </r>
        <r>  0.0308  0.0803  0.0000 </r>
       </set>
       <set comment="band 7">
        <r>  0.0000  0.1660  0.0000 </r>
        <r>  0.0000  0.1660  0.0000 </r>
       </set>
       <set comment="band 8">
        <r>  0.0176  0.1186  0.0000 </r>
        <r>  0.0409  0.0892  0.0000 </r>
       </set>
      </set>
      <set comment="kpoint 10">
       <set comment="band 1">
        <r>  0.2070  0.0288  0.0000 </r>
        <r>  0.2070  0.0288  0.0000 </r>
       </set>
       <set comment="band 2">
        <r>  0.1869  0.0583  0.0000 </r>
        <r>  0.1869  0.0583  0.0000 </r>
       </set>
       <set comment="band 3">
        <r>  0.0067  0.1551  0.0000 </r>
        <r>  0.0067  0.1551  0.0000 </r>
       </set>
       <set comment="band 4">
        <r>  0.0016  0.1718  0.0000 </r>
        <r>  0.0016  0.1718  0.0000 </r>
       </set>
       <set comment="band 5">
        <r>  0.0272  0.0969  0.0000 </r>
        <r>  0.0272  0.0969  0.0000 </r>
       </set>
       <set comment="band 6">
        <r>  0.0093  0.0727  0.0000 </r>
        <r>  0.0093  0.0727  0.0000 </r>
       </set>
       <set comment="band 7">
        <r>  0.0663  0.0982  0.0000 </r>
        <r>  0.0663  0.0982  0.0000 </r>
       </set>
       <set comment="band 8">
        <r>  0.0196  0.1186  0.0000 </r>
        <r>  0.0196  0.1186  0.0000 </r>
       </set>
      </set>
     </set>
    </set>
   </array>
  </projected>
 </calculation>
 <structure name="finalpos" >
  <crystal>
   <varray name="basis" >
    <v>       0.00000000       2.73607441       2.73607441 </v>
    <v>       2.73607441      -0.00000000       2.73607441 </v>
    <v>       2.73607441       2.73607441       0.00000000 </v>
   </varray>
   <i name="volume">     40.96507088 </i>
   <varray name="rec_basis" >
    <v>      -0.18274357       0.18274357       0.18274357 </v>
    <v>       0.18274357      -0.18274357       0.18274357 </v>
    <v>       0.18274357       0.18274357      -0.18274357 </v>
   </varray>
  </crystal>
  <varray name="positions" >
   <v>       0.25000000       0.25000000       0.25000000 </v>
   <v>       0.00000000       0.00000000       0.00000000 </v>
  </varray>
 </structure>
</modeling>
