unknown system                          
           1
     0.000000    2.721851    2.721851
     2.721851    0.000000    2.721851
     2.721851    2.721851    0.000000
   Si
     2
Direct configuration=     1
   0.25000000  0.25000000  0.25000000
   0.00000000  0.00000000  0.00000000
unknown system                          
           1
     0.000000    2.745891    2.745891
     2.745891   -0.000000    2.745891
     2.745891    2.745891    0.000000
   Si
     2
Direct configuration=     2
   0.25000000  0.25000000  0.25000000
   0.00000000  0.00000000  0.00000000
unknown system                          
           1
     0.000000    2.736074    2.736074
     2.736074   -0.000000    2.736074
     2.736074    2.736074    0.000000
   Si
     2
Direct configuration=     3
   0.25000000  0.25000000  0.25000000
   0.00000000  0.00000000  0.00000000
