   2   2   1   0
  0.2239950E+02  0.3172023E-09  0.3172023E-09  0.5141205E-09  0.5000000E-15
  1.000000000000000E-004
  CAR 
 unknown system                          
     16.56334306     -5.29402346  301      2.58429501      1.00000000
     -5.294  0.0000E+00  0.0000E+00
     -5.221  0.0000E+00  0.0000E+00
     -5.148  0.0000E+00  0.0000E+00
     -5.075  0.0000E+00  0.0000E+00
     -5.003  0.0000E+00  0.0000E+00
     -4.930  0.0000E+00  0.0000E+00
     -4.857  0.1209E-17  0.8811E-19
     -4.784  0.2873E-14  0.2094E-15
     -4.711  0.2484E-11  0.1812E-12
     -4.638  0.7619E-09  0.5569E-10
     -4.565  0.8361E-07  0.6147E-08
     -4.493  0.3329E-05  0.2487E-06
     -4.420  0.4966E-04  0.3866E-05
     -4.347  0.3102E-03  0.2647E-04
     -4.274  0.1125E-02  0.1084E-03
     -4.201  0.3163E-02  0.3389E-03
     -4.128  0.5974E-02  0.7741E-03
     -4.055  0.7874E-02  0.1348E-02
     -3.983  0.7519E-02  0.1896E-02
     -3.910  0.6007E-02  0.2333E-02
     -3.837  0.8168E-02  0.2928E-02
     -3.764  0.1388E-01  0.3940E-02
     -3.691  0.1788E-01  0.5242E-02
     -3.618  0.1526E-01  0.6354E-02
     -3.545  0.8186E-02  0.6951E-02
     -3.473  0.5685E-02  0.7365E-02
     -3.400  0.1086E-01  0.8156E-02
     -3.327  0.1782E-01  0.9455E-02
     -3.254  0.2320E-01  0.1115E-01
     -3.181  0.2200E-01  0.1275E-01
     -3.108  0.1622E-01  0.1393E-01
     -3.035  0.1300E-01  0.1488E-01
     -2.963  0.1432E-01  0.1592E-01
     -2.890  0.2079E-01  0.1744E-01
     -2.817  0.2136E-01  0.1899E-01
     -2.744  0.1549E-01  0.2012E-01
     -2.671  0.1603E-01  0.2129E-01
     -2.598  0.2052E-01  0.2278E-01
     -2.525  0.2229E-01  0.2441E-01
     -2.453  0.2140E-01  0.2597E-01
     -2.380  0.2272E-01  0.2762E-01
     -2.307  0.2589E-01  0.2951E-01
     -2.234  0.2491E-01  0.3132E-01
     -2.161  0.2127E-01  0.3287E-01
     -2.088  0.2786E-01  0.3490E-01
     -2.015  0.3327E-01  0.3733E-01
     -1.943  0.2269E-01  0.3898E-01
     -1.870  0.1182E-01  0.3984E-01
     -1.797  0.9479E-02  0.4053E-01
     -1.724  0.1662E-01  0.4174E-01
     -1.651  0.2835E-01  0.4381E-01
     -1.578  0.3458E-01  0.4633E-01
     -1.505  0.3879E-01  0.4915E-01
     -1.433  0.3662E-01  0.5182E-01
     -1.360  0.3143E-01  0.5411E-01
     -1.287  0.3344E-01  0.5655E-01
     -1.214  0.2830E-01  0.5861E-01
     -1.141  0.1818E-01  0.5993E-01
     -1.068  0.1979E-01  0.6137E-01
     -0.995  0.2582E-01  0.6326E-01
     -0.923  0.2489E-01  0.6507E-01
     -0.850  0.2572E-01  0.6694E-01
     -0.777  0.3012E-01  0.6914E-01
     -0.704  0.3455E-01  0.7165E-01
     -0.631  0.3058E-01  0.7388E-01
     -0.558  0.3252E-01  0.7625E-01
     -0.485  0.4754E-01  0.7972E-01
     -0.413  0.4558E-01  0.8304E-01
     -0.340  0.2632E-01  0.8495E-01
     -0.267  0.2059E-01  0.8645E-01
     -0.194  0.2689E-01  0.8841E-01
     -0.121  0.3418E-01  0.9090E-01
     -0.048  0.3756E-01  0.9364E-01
      0.025  0.3438E-01  0.9614E-01
      0.097  0.2906E-01  0.9826E-01
      0.170  0.2637E-01  0.1002E+00
      0.243  0.3935E-01  0.1031E+00
      0.316  0.5548E-01  0.1071E+00
      0.389  0.4685E-01  0.1105E+00
      0.462  0.2949E-01  0.1127E+00
      0.535  0.2072E-01  0.1142E+00
      0.607  0.2267E-01  0.1158E+00
      0.680  0.3316E-01  0.1182E+00
      0.753  0.4363E-01  0.1214E+00
      0.826  0.4475E-01  0.1247E+00
      0.899  0.4004E-01  0.1276E+00
      0.972  0.4208E-01  0.1307E+00
      1.045  0.4854E-01  0.1342E+00
      1.117  0.4113E-01  0.1372E+00
      1.190  0.3266E-01  0.1396E+00
      1.263  0.3870E-01  0.1424E+00
      1.336  0.4618E-01  0.1458E+00
      1.409  0.4850E-01  0.1493E+00
      1.482  0.5395E-01  0.1532E+00
      1.555  0.5224E-01  0.1570E+00
      1.627  0.3611E-01  0.1597E+00
      1.700  0.3244E-01  0.1620E+00
      1.773  0.3738E-01  0.1647E+00
      1.846  0.2794E-01  0.1668E+00
      1.919  0.2072E-01  0.1683E+00
      1.992  0.2437E-01  0.1701E+00
      2.065  0.3873E-01  0.1729E+00
      2.137  0.5553E-01  0.1769E+00
      2.210  0.5963E-01  0.1813E+00
      2.283  0.4812E-01  0.1848E+00
      2.356  0.3699E-01  0.1875E+00
      2.429  0.5209E-01  0.1913E+00
      2.502  0.6578E-01  0.1961E+00
      2.575  0.4947E-01  0.1997E+00
      2.647  0.2963E-01  0.2018E+00
      2.720  0.3592E-01  0.2044E+00
      2.793  0.4117E-01  0.2074E+00
      2.866  0.2337E-01  0.2091E+00
      2.939  0.1214E-01  0.2100E+00
      3.012  0.2051E-01  0.2115E+00
      3.085  0.3795E-01  0.2143E+00
      3.157  0.5437E-01  0.2182E+00
      3.230  0.5937E-01  0.2226E+00
      3.303  0.5561E-01  0.2266E+00
      3.376  0.5466E-01  0.2306E+00
      3.449  0.4875E-01  0.2342E+00
      3.522  0.4733E-01  0.2376E+00
      3.595  0.6570E-01  0.2424E+00
      3.667  0.7359E-01  0.2478E+00
      3.740  0.5184E-01  0.2515E+00
      3.813  0.4112E-01  0.2545E+00
      3.886  0.4689E-01  0.2579E+00
      3.959  0.3683E-01  0.2606E+00
      4.032  0.2846E-01  0.2627E+00
      4.105  0.3603E-01  0.2653E+00
      4.178  0.5236E-01  0.2691E+00
      4.250  0.5644E-01  0.2733E+00
      4.323  0.4885E-01  0.2768E+00
      4.396  0.5057E-01  0.2805E+00
      4.469  0.6047E-01  0.2849E+00
      4.542  0.5255E-01  0.2887E+00
      4.615  0.3307E-01  0.2911E+00
      4.688  0.2353E-01  0.2929E+00
      4.760  0.3265E-01  0.2952E+00
      4.833  0.5334E-01  0.2991E+00
      4.906  0.7354E-01  0.3045E+00
      4.979  0.7117E-01  0.3097E+00
      5.052  0.4887E-01  0.3132E+00
      5.125  0.4122E-01  0.3162E+00
      5.198  0.4572E-01  0.3196E+00
      5.270  0.4487E-01  0.3228E+00
      5.343  0.4878E-01  0.3264E+00
      5.416  0.5400E-01  0.3303E+00
      5.489  0.5393E-01  0.3342E+00
      5.562  0.5817E-01  0.3385E+00
      5.635  0.7129E-01  0.3437E+00
      5.708  0.6830E-01  0.3487E+00
      5.780  0.4927E-01  0.3522E+00
      5.853  0.3936E-01  0.3551E+00
      5.926  0.3852E-01  0.3579E+00
      5.999  0.4558E-01  0.3612E+00
      6.072  0.6441E-01  0.3659E+00
      6.145  0.7617E-01  0.3715E+00
      6.218  0.6715E-01  0.3764E+00
      6.290  0.4656E-01  0.3798E+00
      6.363  0.4099E-01  0.3828E+00
      6.436  0.4866E-01  0.3863E+00
      6.509  0.5971E-01  0.3906E+00
      6.582  0.6815E-01  0.3956E+00
      6.655  0.6468E-01  0.4003E+00
      6.728  0.5096E-01  0.4040E+00
      6.800  0.3920E-01  0.4069E+00
      6.873  0.4654E-01  0.4103E+00
      6.946  0.6624E-01  0.4151E+00
      7.019  0.6726E-01  0.4200E+00
      7.092  0.5515E-01  0.4240E+00
      7.165  0.4727E-01  0.4275E+00
      7.238  0.4899E-01  0.4310E+00
      7.310  0.5864E-01  0.4353E+00
      7.383  0.6335E-01  0.4399E+00
      7.456  0.5709E-01  0.4441E+00
      7.529  0.5006E-01  0.4477E+00
      7.602  0.4414E-01  0.4510E+00
      7.675  0.5334E-01  0.4548E+00
      7.748  0.7774E-01  0.4605E+00
      7.820  0.7116E-01  0.4657E+00
      7.893  0.5265E-01  0.4695E+00
      7.966  0.5166E-01  0.4733E+00
      8.039  0.4355E-01  0.4765E+00
      8.112  0.4274E-01  0.4796E+00
      8.185  0.5427E-01  0.4835E+00
      8.258  0.6030E-01  0.4879E+00
      8.330  0.6030E-01  0.4923E+00
      8.403  0.5979E-01  0.4967E+00
      8.476  0.6307E-01  0.5013E+00
      8.549  0.6501E-01  0.5060E+00
      8.622  0.5471E-01  0.5100E+00
      8.695  0.4117E-01  0.5130E+00
      8.768  0.3910E-01  0.5158E+00
      8.840  0.4556E-01  0.5192E+00
      8.913  0.6480E-01  0.5239E+00
      8.986  0.8529E-01  0.5301E+00
      9.059  0.8502E-01  0.5363E+00
      9.132  0.7315E-01  0.5416E+00
      9.205  0.6513E-01  0.5464E+00
      9.278  0.6864E-01  0.5514E+00
      9.350  0.8156E-01  0.5573E+00
      9.423  0.7977E-01  0.5631E+00
      9.496  0.5448E-01  0.5671E+00
      9.569  0.4674E-01  0.5705E+00
      9.642  0.5623E-01  0.5746E+00
      9.715  0.5407E-01  0.5785E+00
      9.788  0.4909E-01  0.5821E+00
      9.860  0.5389E-01  0.5860E+00
      9.933  0.5653E-01  0.5902E+00
     10.006  0.4862E-01  0.5937E+00
     10.079  0.5654E-01  0.5978E+00
     10.152  0.8582E-01  0.6041E+00
     10.225  0.9204E-01  0.6108E+00
     10.298  0.7525E-01  0.6163E+00
     10.370  0.6057E-01  0.6207E+00
     10.443  0.5840E-01  0.6249E+00
     10.516  0.5610E-01  0.6290E+00
     10.589  0.5616E-01  0.6331E+00
     10.662  0.6634E-01  0.6379E+00
     10.735  0.6742E-01  0.6428E+00
     10.808  0.5405E-01  0.6468E+00
     10.880  0.4775E-01  0.6503E+00
     10.953  0.6127E-01  0.6547E+00
     11.026  0.7315E-01  0.6601E+00
     11.099  0.6138E-01  0.6645E+00
     11.172  0.5721E-01  0.6687E+00
     11.245  0.7173E-01  0.6739E+00
     11.318  0.7305E-01  0.6792E+00
     11.390  0.5574E-01  0.6833E+00
     11.463  0.4472E-01  0.6866E+00
     11.536  0.4852E-01  0.6901E+00
     11.609  0.6054E-01  0.6945E+00
     11.682  0.7540E-01  0.7000E+00
     11.755  0.9164E-01  0.7067E+00
     11.828  0.8536E-01  0.7129E+00
     11.900  0.6992E-01  0.7180E+00
     11.973  0.6061E-01  0.7224E+00
     12.046  0.5632E-01  0.7265E+00
     12.119  0.5320E-01  0.7304E+00
     12.192  0.3247E-01  0.7328E+00
     12.265  0.1945E-01  0.7342E+00
     12.338  0.2826E-01  0.7362E+00
     12.410  0.3393E-01  0.7387E+00
     12.483  0.2247E-01  0.7403E+00
     12.556  0.1592E-01  0.7415E+00
     12.629  0.3914E-01  0.7443E+00
     12.702  0.6998E-01  0.7494E+00
     12.775  0.7344E-01  0.7548E+00
     12.848  0.6345E-01  0.7594E+00
     12.920  0.4534E-01  0.7627E+00
     12.993  0.2437E-01  0.7645E+00
     13.066  0.2350E-01  0.7662E+00
     13.139  0.3899E-01  0.7691E+00
     13.212  0.4341E-01  0.7722E+00
     13.285  0.3028E-01  0.7744E+00
     13.358  0.1903E-01  0.7758E+00
     13.430  0.2169E-01  0.7774E+00
     13.503  0.4057E-01  0.7803E+00
     13.576  0.4585E-01  0.7837E+00
     13.649  0.2862E-01  0.7858E+00
     13.722  0.1454E-01  0.7868E+00
     13.795  0.1080E-01  0.7876E+00
     13.868  0.9120E-02  0.7883E+00
     13.940  0.1106E-01  0.7891E+00
     14.013  0.1647E-01  0.7903E+00
     14.086  0.1825E-01  0.7916E+00
     14.159  0.1712E-01  0.7929E+00
     14.232  0.1098E-01  0.7937E+00
     14.305  0.3562E-02  0.7939E+00
     14.378  0.1991E-02  0.7941E+00
     14.450  0.7213E-02  0.7946E+00
     14.523  0.1296E-01  0.7955E+00
     14.596  0.9661E-02  0.7962E+00
     14.669  0.5464E-02  0.7966E+00
     14.742  0.6613E-02  0.7971E+00
     14.815  0.6634E-02  0.7976E+00
     14.888  0.7725E-02  0.7982E+00
     14.960  0.9758E-02  0.7989E+00
     15.033  0.5766E-02  0.7993E+00
     15.106  0.1327E-02  0.7994E+00
     15.179  0.1159E-03  0.7994E+00
     15.252  0.3828E-05  0.7994E+00
     15.325  0.3028E-05  0.7994E+00
     15.398  0.7497E-04  0.7994E+00
     15.470  0.6943E-03  0.7995E+00
     15.543  0.2402E-02  0.7996E+00
     15.616  0.3137E-02  0.7999E+00
     15.689  0.1550E-02  0.8000E+00
     15.762  0.2878E-03  0.8000E+00
     15.835  0.1985E-04  0.8000E+00
     15.908  0.5011E-06  0.8000E+00
     15.980  0.4571E-08  0.8000E+00
     16.053  0.1490E-10  0.8000E+00
     16.126  0.1724E-13  0.8000E+00
     16.199  0.7256E-17  0.8000E+00
     16.272  0.0000E+00  0.8000E+00
     16.345  0.0000E+00  0.8000E+00
     16.418  0.0000E+00  0.8000E+00
     16.490  0.0000E+00  0.8000E+00
     16.563  0.0000E+00  0.8000E+00
     16.56334306     -5.29402346  301      2.58429501      1.00000000
     -5.294  0.0000E+00  0.0000E+00  0.0000E+00
     -5.221  0.0000E+00  0.0000E+00  0.0000E+00
     -5.148  0.0000E+00  0.0000E+00  0.0000E+00
     -5.075  0.0000E+00  0.0000E+00  0.0000E+00
     -5.003  0.0000E+00  0.0000E+00  0.0000E+00
     -4.930  0.0000E+00  0.0000E+00  0.0000E+00
     -4.857  0.2158E-17  0.1490E-32  0.1186E-22
     -4.784  0.5125E-14  0.3539E-29  0.2817E-19
     -4.711  0.4432E-11  0.1548E-17  0.2436E-16
     -4.638  0.1359E-08  0.2752E-14  0.7475E-14
     -4.565  0.1492E-06  0.1760E-11  0.8225E-12
     -4.493  0.5939E-05  0.4067E-09  0.3335E-10
     -4.420  0.8856E-04  0.3428E-07  0.5544E-09
     -4.347  0.5524E-03  0.1067E-05  0.5385E-08
     -4.274  0.1995E-02  0.1261E-04  0.4164E-07
     -4.201  0.5582E-02  0.6117E-04  0.1978E-06
     -4.128  0.1050E-01  0.1539E-03  0.5487E-06
     -4.055  0.1378E-01  0.2674E-03  0.1059E-05
     -3.983  0.1310E-01  0.3097E-03  0.1441E-05
     -3.910  0.1039E-01  0.3296E-03  0.2252E-05
     -3.837  0.1397E-01  0.5976E-03  0.5124E-05
     -3.764  0.2360E-01  0.1158E-02  0.1071E-04
     -3.691  0.3026E-01  0.1618E-02  0.1571E-04
     -3.618  0.2574E-01  0.1476E-02  0.1516E-04
     -3.545  0.1375E-01  0.8470E-03  0.9461E-05
     -3.473  0.9403E-02  0.7279E-03  0.1000E-04
     -3.400  0.1779E-01  0.1548E-02  0.2384E-04
     -3.327  0.2907E-01  0.2680E-02  0.4470E-04
     -3.254  0.3764E-01  0.3684E-02  0.6514E-04
     -3.181  0.3553E-01  0.3648E-02  0.6714E-04
     -3.108  0.2600E-01  0.2863E-02  0.5534E-04
     -3.035  0.2067E-01  0.2465E-02  0.5155E-04
     -2.963  0.2252E-01  0.2941E-02  0.6771E-04
     -2.890  0.3246E-01  0.4495E-02  0.1068E-03
     -2.817  0.3322E-01  0.4742E-02  0.1136E-03
     -2.744  0.2390E-01  0.3607E-02  0.9086E-04
     -2.671  0.2446E-01  0.3988E-02  0.1104E-03
     -2.598  0.3112E-01  0.5296E-02  0.1570E-03
     -2.525  0.3361E-01  0.5925E-02  0.1854E-03
     -2.453  0.3202E-01  0.5921E-02  0.1939E-03
     -2.380  0.3366E-01  0.6586E-02  0.2208E-03
     -2.307  0.3799E-01  0.7814E-02  0.2639E-03
     -2.234  0.3634E-01  0.7718E-02  0.2663E-03
     -2.161  0.3076E-01  0.6842E-02  0.2517E-03
     -2.088  0.3986E-01  0.9359E-02  0.3631E-03
     -2.015  0.4736E-01  0.1137E-01  0.4467E-03
     -1.943  0.3216E-01  0.7880E-02  0.3128E-03
     -1.870  0.1659E-01  0.4248E-02  0.1740E-03
     -1.797  0.1312E-01  0.3568E-02  0.1596E-03
     -1.724  0.2275E-01  0.6482E-02  0.3076E-03
     -1.651  0.3858E-01  0.1127E-01  0.5404E-03
     -1.578  0.4669E-01  0.1406E-01  0.6817E-03
     -1.505  0.5186E-01  0.1620E-01  0.7981E-03
     -1.433  0.4865E-01  0.1556E-01  0.7858E-03
     -1.360  0.4136E-01  0.1370E-01  0.7242E-03
     -1.287  0.4352E-01  0.1497E-01  0.8077E-03
     -1.214  0.3657E-01  0.1289E-01  0.6953E-03
     -1.141  0.2323E-01  0.8504E-02  0.4661E-03
     -1.068  0.2490E-01  0.9591E-02  0.5494E-03
     -0.995  0.3227E-01  0.1269E-01  0.7476E-03
     -0.923  0.3084E-01  0.1244E-01  0.7527E-03
     -0.850  0.3147E-01  0.1318E-01  0.8197E-03
     -0.777  0.3645E-01  0.1578E-01  0.9981E-03
     -0.704  0.4146E-01  0.1840E-01  0.1183E-02
     -0.631  0.3647E-01  0.1647E-01  0.1096E-02
     -0.558  0.3821E-01  0.1797E-01  0.1257E-02
     -0.485  0.5519E-01  0.2680E-01  0.1884E-02
     -0.413  0.5264E-01  0.2593E-01  0.1822E-02
     -0.340  0.3011E-01  0.1520E-01  0.1078E-02
     -0.267  0.2307E-01  0.1227E-01  0.9025E-03
     -0.194  0.2979E-01  0.1628E-01  0.1243E-02
     -0.121  0.3747E-01  0.2101E-01  0.1632E-02
     -0.048  0.4061E-01  0.2352E-01  0.1824E-02
      0.025  0.3653E-01  0.2202E-01  0.1687E-02
      0.097  0.3041E-01  0.1897E-01  0.1457E-02
      0.170  0.2706E-01  0.1759E-01  0.1392E-02
      0.243  0.3955E-01  0.2688E-01  0.2176E-02
      0.316  0.5532E-01  0.3825E-01  0.3113E-02
      0.389  0.4639E-01  0.3257E-01  0.2668E-02
      0.462  0.2893E-01  0.2072E-01  0.1739E-02
      0.535  0.2018E-01  0.1467E-01  0.1306E-02
      0.607  0.2177E-01  0.1624E-01  0.1541E-02
      0.680  0.3106E-01  0.2427E-01  0.2316E-02
      0.753  0.3962E-01  0.3284E-01  0.3021E-02
      0.826  0.3930E-01  0.3473E-01  0.3029E-02
      0.899  0.3467E-01  0.3148E-01  0.2791E-02
      0.972  0.3651E-01  0.3297E-01  0.3186E-02
      1.045  0.4143E-01  0.3847E-01  0.3787E-02
      1.117  0.3312E-01  0.3395E-01  0.3113E-02
      1.190  0.2320E-01  0.2906E-01  0.2325E-02
      1.263  0.2713E-01  0.3475E-01  0.2893E-02
      1.336  0.3298E-01  0.4116E-01  0.3645E-02
      1.409  0.3233E-01  0.4480E-01  0.3806E-02
      1.482  0.3323E-01  0.5165E-01  0.4218E-02
      1.555  0.3121E-01  0.5067E-01  0.4136E-02
      1.627  0.2192E-01  0.3487E-01  0.2990E-02
      1.700  0.1931E-01  0.3186E-01  0.2778E-02
      1.773  0.2009E-01  0.3828E-01  0.3082E-02
      1.846  0.1408E-01  0.2903E-01  0.2380E-02
      1.919  0.1112E-01  0.2063E-01  0.2115E-02
      1.992  0.1592E-01  0.2240E-01  0.2885E-02
      2.065  0.2532E-01  0.3593E-01  0.4663E-02
      2.137  0.3226E-01  0.5413E-01  0.6555E-02
      2.210  0.3067E-01  0.6054E-01  0.6997E-02
      2.283  0.2379E-01  0.4947E-01  0.5736E-02
      2.356  0.2128E-01  0.3604E-01  0.4887E-02
      2.429  0.3456E-01  0.4760E-01  0.7591E-02
      2.502  0.4672E-01  0.5795E-01  0.1001E-01
      2.575  0.3668E-01  0.4220E-01  0.7870E-02
      2.647  0.2237E-01  0.2466E-01  0.5017E-02
      2.720  0.3457E-01  0.2523E-01  0.6770E-02
      2.793  0.4604E-01  0.2492E-01  0.8191E-02
      2.866  0.2653E-01  0.1377E-01  0.4730E-02
      2.939  0.8151E-02  0.1046E-01  0.2280E-02
      3.012  0.9920E-02  0.2036E-01  0.3720E-02
      3.085  0.2795E-01  0.3238E-01  0.7339E-02
      3.157  0.5097E-01  0.3978E-01  0.1115E-01
      3.230  0.5836E-01  0.4132E-01  0.1257E-01
      3.303  0.4974E-01  0.4125E-01  0.1190E-01
      3.376  0.4178E-01  0.4466E-01  0.1171E-01
      3.449  0.3451E-01  0.4139E-01  0.1055E-01
      3.522  0.3344E-01  0.4043E-01  0.1051E-01
      3.595  0.4118E-01  0.5940E-01  0.1480E-01
      3.667  0.4041E-01  0.6958E-01  0.1670E-01
      3.740  0.2755E-01  0.4888E-01  0.1198E-01
      3.813  0.2373E-01  0.3752E-01  0.9795E-02
      3.886  0.2850E-01  0.4219E-01  0.1130E-01
      3.959  0.2180E-01  0.3324E-01  0.9002E-02
      4.032  0.1521E-01  0.2647E-01  0.7153E-02
      4.105  0.2093E-01  0.3301E-01  0.9263E-02
      4.178  0.3659E-01  0.4490E-01  0.1363E-01
      4.250  0.4441E-01  0.4601E-01  0.1480E-01
      4.323  0.3729E-01  0.4062E-01  0.1299E-01
      4.396  0.2802E-01  0.4776E-01  0.1389E-01
      4.469  0.3010E-01  0.5911E-01  0.1689E-01
      4.542  0.3399E-01  0.4757E-01  0.1457E-01
      4.615  0.2684E-01  0.2744E-01  0.9035E-02
      4.688  0.1658E-01  0.2032E-01  0.6637E-02
      4.760  0.2056E-01  0.2859E-01  0.9575E-02
      4.833  0.3433E-01  0.4661E-01  0.1599E-01
      4.906  0.4910E-01  0.6459E-01  0.2220E-01
      4.979  0.5690E-01  0.5964E-01  0.2100E-01
      5.052  0.4589E-01  0.3867E-01  0.1413E-01
      5.125  0.3561E-01  0.3399E-01  0.1234E-01
      5.198  0.3524E-01  0.3944E-01  0.1403E-01
      5.270  0.3224E-01  0.3993E-01  0.1388E-01
      5.343  0.2959E-01  0.4551E-01  0.1561E-01
      5.416  0.2836E-01  0.5112E-01  0.1826E-01
      5.489  0.2597E-01  0.5115E-01  0.1920E-01
      5.562  0.3574E-01  0.5333E-01  0.2006E-01
      5.635  0.5619E-01  0.6294E-01  0.2281E-01
      5.708  0.5204E-01  0.6226E-01  0.2159E-01
      5.780  0.3072E-01  0.4771E-01  0.1621E-01
      5.853  0.2139E-01  0.3921E-01  0.1330E-01
      5.926  0.2226E-01  0.3886E-01  0.1255E-01
      5.999  0.2988E-01  0.4504E-01  0.1493E-01
      6.072  0.4102E-01  0.6227E-01  0.2250E-01
      6.145  0.4371E-01  0.7412E-01  0.2781E-01
      6.218  0.3812E-01  0.6618E-01  0.2440E-01
      6.290  0.2861E-01  0.4695E-01  0.1602E-01
      6.363  0.3071E-01  0.3900E-01  0.1398E-01
      6.436  0.4059E-01  0.4396E-01  0.1680E-01
      6.509  0.4683E-01  0.5713E-01  0.2009E-01
      6.582  0.4734E-01  0.6933E-01  0.2277E-01
      6.655  0.3854E-01  0.6676E-01  0.2319E-01
      6.728  0.2550E-01  0.5147E-01  0.2072E-01
      6.800  0.1700E-01  0.3942E-01  0.1732E-01
      6.873  0.2227E-01  0.4749E-01  0.1999E-01
      6.946  0.3181E-01  0.6821E-01  0.2812E-01
      7.019  0.3337E-01  0.6847E-01  0.2889E-01
      7.092  0.3277E-01  0.5292E-01  0.2407E-01
      7.165  0.3107E-01  0.4224E-01  0.2142E-01
      7.238  0.3286E-01  0.4241E-01  0.2297E-01
      7.310  0.3090E-01  0.5497E-01  0.2846E-01
      7.383  0.2554E-01  0.6520E-01  0.3064E-01
      7.456  0.2341E-01  0.6001E-01  0.2723E-01
      7.529  0.1913E-01  0.5051E-01  0.2526E-01
      7.602  0.1601E-01  0.4346E-01  0.2285E-01
      7.675  0.2270E-01  0.5335E-01  0.2668E-01
      7.748  0.3452E-01  0.7854E-01  0.3875E-01
      7.820  0.3544E-01  0.7085E-01  0.3533E-01
      7.893  0.3376E-01  0.5060E-01  0.2556E-01
      7.966  0.3545E-01  0.4966E-01  0.2482E-01
      8.039  0.2689E-01  0.4385E-01  0.2092E-01
      8.112  0.2295E-01  0.4490E-01  0.2076E-01
      8.185  0.3197E-01  0.5296E-01  0.2701E-01
      8.258  0.4045E-01  0.5247E-01  0.3131E-01
      8.330  0.4433E-01  0.4988E-01  0.3199E-01
      8.403  0.4926E-01  0.5377E-01  0.2940E-01
      8.476  0.5148E-01  0.6220E-01  0.2954E-01
      8.549  0.4729E-01  0.6623E-01  0.3138E-01
      8.622  0.4623E-01  0.5530E-01  0.2481E-01
      8.695  0.4231E-01  0.3825E-01  0.1801E-01
      8.768  0.3649E-01  0.3303E-01  0.1967E-01
      8.840  0.3202E-01  0.3945E-01  0.2603E-01
      8.913  0.4497E-01  0.5861E-01  0.3635E-01
      8.986  0.6494E-01  0.7818E-01  0.4541E-01
      9.059  0.6044E-01  0.8101E-01  0.4553E-01
      9.132  0.4078E-01  0.7545E-01  0.4127E-01
      9.205  0.2440E-01  0.6912E-01  0.4073E-01
      9.278  0.2261E-01  0.7223E-01  0.4470E-01
      9.350  0.3859E-01  0.8811E-01  0.4873E-01
      9.423  0.4964E-01  0.9031E-01  0.4203E-01
      9.496  0.3835E-01  0.6589E-01  0.2442E-01
      9.569  0.3366E-01  0.5663E-01  0.1988E-01
      9.642  0.3687E-01  0.6289E-01  0.2855E-01
      9.715  0.3407E-01  0.5653E-01  0.3049E-01
      9.788  0.3117E-01  0.5133E-01  0.2711E-01
      9.860  0.2534E-01  0.6124E-01  0.2975E-01
      9.933  0.1825E-01  0.6894E-01  0.3157E-01
     10.006  0.1792E-01  0.5827E-01  0.2706E-01
     10.079  0.3443E-01  0.6004E-01  0.3248E-01
     10.152  0.5507E-01  0.8737E-01  0.5242E-01
     10.225  0.5030E-01  0.9626E-01  0.5966E-01
     10.298  0.3533E-01  0.8542E-01  0.4855E-01
     10.370  0.2780E-01  0.7559E-01  0.3634E-01
     10.443  0.2416E-01  0.7513E-01  0.3500E-01
     10.516  0.2107E-01  0.6938E-01  0.3571E-01
     10.589  0.2406E-01  0.6129E-01  0.3830E-01
     10.662  0.3266E-01  0.6607E-01  0.4660E-01
     10.735  0.3095E-01  0.7052E-01  0.4657E-01
     10.808  0.1920E-01  0.5834E-01  0.3951E-01
     10.880  0.1742E-01  0.4723E-01  0.3897E-01
     10.953  0.2925E-01  0.5776E-01  0.4947E-01
     11.026  0.4128E-01  0.6969E-01  0.5602E-01
     11.099  0.3909E-01  0.6345E-01  0.4351E-01
     11.172  0.3708E-01  0.6940E-01  0.3638E-01
     11.245  0.4665E-01  0.9049E-01  0.4526E-01
     11.318  0.4316E-01  0.9168E-01  0.4856E-01
     11.390  0.2522E-01  0.6779E-01  0.4071E-01
     11.463  0.1818E-01  0.4743E-01  0.3687E-01
     11.536  0.2408E-01  0.4692E-01  0.4128E-01
     11.609  0.3185E-01  0.6138E-01  0.4966E-01
     11.682  0.3682E-01  0.7667E-01  0.6258E-01
     11.755  0.4070E-01  0.9104E-01  0.7841E-01
     11.828  0.3508E-01  0.8631E-01  0.7269E-01
     11.900  0.2883E-01  0.7198E-01  0.5879E-01
     11.973  0.3058E-01  0.6751E-01  0.4823E-01
     12.046  0.3303E-01  0.7032E-01  0.4254E-01
     12.119  0.2894E-01  0.6707E-01  0.4209E-01
     12.192  0.1374E-01  0.4061E-01  0.2738E-01
     12.265  0.2954E-02  0.2588E-01  0.1762E-01
     12.338  0.1601E-02  0.3445E-01  0.2763E-01
     12.410  0.3500E-02  0.3488E-01  0.3477E-01
     12.483  0.3443E-02  0.2038E-01  0.2349E-01
     12.556  0.2619E-02  0.1629E-01  0.1659E-01
     12.629  0.6722E-02  0.4316E-01  0.4069E-01
     12.702  0.1359E-01  0.7743E-01  0.7151E-01
     12.775  0.1726E-01  0.8433E-01  0.7215E-01
     12.848  0.1930E-01  0.7482E-01  0.6120E-01
     12.920  0.1638E-01  0.5455E-01  0.4393E-01
     12.993  0.8929E-02  0.2877E-01  0.2446E-01
     13.066  0.6357E-02  0.2385E-01  0.2612E-01
     13.139  0.8761E-02  0.4177E-01  0.4147E-01
     13.212  0.9517E-02  0.4993E-01  0.4319E-01
     13.285  0.7034E-02  0.3731E-01  0.2804E-01
     13.358  0.5270E-02  0.2420E-01  0.1683E-01
     13.430  0.8412E-02  0.2296E-01  0.2182E-01
     13.503  0.1653E-01  0.3966E-01  0.4365E-01
     13.576  0.1587E-01  0.4446E-01  0.5158E-01
     13.649  0.6485E-02  0.2718E-01  0.3481E-01
     13.722  0.1125E-02  0.1393E-01  0.1998E-01
     13.795  0.8405E-04  0.1066E-01  0.1624E-01
     13.868  0.8457E-05  0.8835E-02  0.1363E-01
     13.940  0.3796E-04  0.9038E-02  0.1600E-01
     14.013  0.1382E-03  0.1187E-01  0.2430E-01
     14.086  0.3192E-03  0.1138E-01  0.2891E-01
     14.159  0.4368E-03  0.9419E-02  0.2878E-01
     14.232  0.3022E-03  0.6377E-02  0.1842E-01
     14.305  0.1026E-03  0.2318E-02  0.5813E-02
     14.378  0.1848E-03  0.1511E-02  0.3392E-02
     14.450  0.1048E-02  0.6046E-02  0.1217E-01
     14.523  0.2380E-02  0.1183E-01  0.2103E-01
     14.596  0.2098E-02  0.9537E-02  0.1483E-01
     14.669  0.9652E-03  0.6227E-02  0.7243E-02
     14.742  0.7312E-03  0.8364E-02  0.7879E-02
     14.815  0.5448E-03  0.7496E-02  0.8966E-02
     14.888  0.1708E-03  0.5483E-02  0.1413E-01
     14.960  0.2016E-04  0.5744E-02  0.1927E-01
     15.033  0.8779E-06  0.3458E-02  0.1137E-01
     15.106  0.1391E-07  0.8291E-03  0.2591E-02
     15.179  0.8652E-10  0.7553E-04  0.2239E-03
     15.252  0.1407E-08  0.2576E-05  0.7339E-05
     15.325  0.9734E-07  0.4996E-06  0.7210E-05
     15.398  0.2447E-05  0.1175E-04  0.1791E-03
     15.470  0.2266E-04  0.1088E-03  0.1659E-02
     15.543  0.7842E-04  0.3766E-03  0.5739E-02
     15.616  0.1024E-03  0.4918E-03  0.7495E-02
     15.689  0.5059E-04  0.2430E-03  0.3702E-02
     15.762  0.9396E-05  0.4512E-04  0.6876E-03
     15.835  0.6480E-06  0.3112E-05  0.4742E-04
     15.908  0.1636E-07  0.7856E-07  0.1197E-05
     15.980  0.1492E-09  0.7165E-09  0.1092E-07
     16.053  0.4865E-12  0.2336E-11  0.3560E-10
     16.126  0.5626E-15  0.2702E-14  0.4118E-13
     16.199  0.2369E-18  0.1138E-17  0.1734E-16
     16.272  0.0000E+00  0.0000E+00  0.0000E+00
     16.345  0.0000E+00  0.0000E+00  0.0000E+00
     16.418  0.0000E+00  0.0000E+00  0.0000E+00
     16.490  0.0000E+00  0.0000E+00  0.0000E+00
     16.563  0.0000E+00  0.0000E+00  0.0000E+00
     16.56334306     -5.29402346  301      2.58429501      1.00000000
     -5.294  0.0000E+00  0.0000E+00  0.0000E+00
     -5.221  0.0000E+00  0.0000E+00  0.0000E+00
     -5.148  0.0000E+00  0.0000E+00  0.0000E+00
     -5.075  0.0000E+00  0.0000E+00  0.0000E+00
     -5.003  0.0000E+00  0.0000E+00  0.0000E+00
     -4.930  0.0000E+00  0.0000E+00  0.0000E+00
     -4.857  0.2158E-17  0.1490E-32  0.1186E-22
     -4.784  0.5125E-14  0.3539E-29  0.2817E-19
     -4.711  0.4432E-11  0.1548E-17  0.2436E-16
     -4.638  0.1359E-08  0.2752E-14  0.7475E-14
     -4.565  0.1492E-06  0.1760E-11  0.8225E-12
     -4.493  0.5939E-05  0.4067E-09  0.3335E-10
     -4.420  0.8856E-04  0.3428E-07  0.5544E-09
     -4.347  0.5524E-03  0.1067E-05  0.5385E-08
     -4.274  0.1995E-02  0.1261E-04  0.4164E-07
     -4.201  0.5582E-02  0.6117E-04  0.1978E-06
     -4.128  0.1050E-01  0.1539E-03  0.5487E-06
     -4.055  0.1378E-01  0.2674E-03  0.1059E-05
     -3.983  0.1310E-01  0.3097E-03  0.1441E-05
     -3.910  0.1039E-01  0.3296E-03  0.2252E-05
     -3.837  0.1397E-01  0.5976E-03  0.5124E-05
     -3.764  0.2360E-01  0.1158E-02  0.1071E-04
     -3.691  0.3026E-01  0.1618E-02  0.1571E-04
     -3.618  0.2574E-01  0.1476E-02  0.1516E-04
     -3.545  0.1375E-01  0.8470E-03  0.9461E-05
     -3.473  0.9403E-02  0.7279E-03  0.1000E-04
     -3.400  0.1779E-01  0.1548E-02  0.2384E-04
     -3.327  0.2907E-01  0.2680E-02  0.4470E-04
     -3.254  0.3764E-01  0.3684E-02  0.6514E-04
     -3.181  0.3553E-01  0.3648E-02  0.6714E-04
     -3.108  0.2600E-01  0.2863E-02  0.5534E-04
     -3.035  0.2067E-01  0.2465E-02  0.5155E-04
     -2.963  0.2252E-01  0.2941E-02  0.6771E-04
     -2.890  0.3246E-01  0.4495E-02  0.1068E-03
     -2.817  0.3322E-01  0.4742E-02  0.1136E-03
     -2.744  0.2390E-01  0.3607E-02  0.9086E-04
     -2.671  0.2446E-01  0.3988E-02  0.1104E-03
     -2.598  0.3112E-01  0.5296E-02  0.1570E-03
     -2.525  0.3361E-01  0.5925E-02  0.1854E-03
     -2.453  0.3202E-01  0.5921E-02  0.1939E-03
     -2.380  0.3366E-01  0.6586E-02  0.2208E-03
     -2.307  0.3799E-01  0.7814E-02  0.2639E-03
     -2.234  0.3634E-01  0.7718E-02  0.2663E-03
     -2.161  0.3076E-01  0.6842E-02  0.2517E-03
     -2.088  0.3986E-01  0.9359E-02  0.3631E-03
     -2.015  0.4736E-01  0.1137E-01  0.4467E-03
     -1.943  0.3216E-01  0.7880E-02  0.3128E-03
     -1.870  0.1659E-01  0.4248E-02  0.1740E-03
     -1.797  0.1312E-01  0.3568E-02  0.1596E-03
     -1.724  0.2275E-01  0.6482E-02  0.3076E-03
     -1.651  0.3858E-01  0.1127E-01  0.5404E-03
     -1.578  0.4669E-01  0.1406E-01  0.6817E-03
     -1.505  0.5186E-01  0.1620E-01  0.7981E-03
     -1.433  0.4865E-01  0.1556E-01  0.7858E-03
     -1.360  0.4136E-01  0.1370E-01  0.7242E-03
     -1.287  0.4352E-01  0.1497E-01  0.8077E-03
     -1.214  0.3657E-01  0.1289E-01  0.6953E-03
     -1.141  0.2323E-01  0.8504E-02  0.4661E-03
     -1.068  0.2490E-01  0.9591E-02  0.5494E-03
     -0.995  0.3227E-01  0.1269E-01  0.7476E-03
     -0.923  0.3084E-01  0.1244E-01  0.7527E-03
     -0.850  0.3147E-01  0.1318E-01  0.8197E-03
     -0.777  0.3645E-01  0.1578E-01  0.9981E-03
     -0.704  0.4146E-01  0.1840E-01  0.1183E-02
     -0.631  0.3647E-01  0.1647E-01  0.1096E-02
     -0.558  0.3821E-01  0.1797E-01  0.1257E-02
     -0.485  0.5519E-01  0.2680E-01  0.1884E-02
     -0.413  0.5264E-01  0.2593E-01  0.1822E-02
     -0.340  0.3011E-01  0.1520E-01  0.1078E-02
     -0.267  0.2307E-01  0.1227E-01  0.9025E-03
     -0.194  0.2979E-01  0.1628E-01  0.1243E-02
     -0.121  0.3747E-01  0.2101E-01  0.1632E-02
     -0.048  0.4061E-01  0.2352E-01  0.1824E-02
      0.025  0.3653E-01  0.2202E-01  0.1687E-02
      0.097  0.3041E-01  0.1897E-01  0.1457E-02
      0.170  0.2706E-01  0.1759E-01  0.1392E-02
      0.243  0.3955E-01  0.2688E-01  0.2176E-02
      0.316  0.5532E-01  0.3825E-01  0.3113E-02
      0.389  0.4639E-01  0.3257E-01  0.2668E-02
      0.462  0.2893E-01  0.2072E-01  0.1739E-02
      0.535  0.2018E-01  0.1467E-01  0.1306E-02
      0.607  0.2177E-01  0.1624E-01  0.1541E-02
      0.680  0.3106E-01  0.2427E-01  0.2316E-02
      0.753  0.3962E-01  0.3284E-01  0.3021E-02
      0.826  0.3930E-01  0.3473E-01  0.3029E-02
      0.899  0.3467E-01  0.3148E-01  0.2791E-02
      0.972  0.3651E-01  0.3297E-01  0.3186E-02
      1.045  0.4143E-01  0.3847E-01  0.3787E-02
      1.117  0.3312E-01  0.3395E-01  0.3113E-02
      1.190  0.2320E-01  0.2906E-01  0.2325E-02