    2    2   20    1
  0.2239950E+02  0.3172023E-09  0.3172023E-09  0.5141205E-09  0.5000000E-15
  1.000000000000000E-004
  CAR 
 unknown system                          
      4     76      8
 
  0.0000000E+00  0.0000000E+00  0.0000000E+00  0.9920635E-03
      1         -4.294023   1.000000
      2          1.051329   1.000000
      3          1.568786   1.000000
      4         13.447804   0.000000
      5         13.447813   0.000000
      6         13.530627   0.000000
      7         13.530632   0.000000
      8         14.577633   0.000000
 
  0.8333333E-01 -0.3033188E-17  0.0000000E+00  0.5952381E-02
      1         -4.158426   1.000000
      2          1.174983   1.000000
      3          1.700205   1.000000
      4         11.185877   0.000000
      5         12.237278   0.000000
      6         13.080411   0.000000
      7         14.934879   0.000000
      8         15.563343   0.000000
 
  0.1666667E+00 -0.4111269E-17  0.0000000E+00  0.5952381E-02
      1         -3.752770   1.000000
      2          1.546159   1.000000
      3          2.089073   1.000000
      4          8.680768   0.000000
      5         11.211855   0.000000
      6         11.882309   0.000000
      7         13.472117   0.000000
      8         14.511660   0.000000
 
  0.2500000E+00  0.5297020E-17  0.0000000E+00  0.5952381E-02
      1         -3.080493   1.000000
      2          2.165400   1.000000
      3          2.709182   0.038684
      4          6.368938   0.000000
      5         10.415611   0.000000
      6         10.624556   0.000000
      7         11.143639   0.000000
      8         12.874902   0.000000
 
  0.3333333E+00  0.8275217E-18  0.0000000E+00  0.5952381E-02
      1         -2.147256   1.000000
      2          3.033200   0.000000
      3          3.304702   0.000000
      4          4.536326   0.000000
      5          9.032312   0.000000
      6          9.223491   0.000000
      7          9.848217   0.000000
      8         11.696181   0.000000
 
  0.4166667E+00 -0.1269204E-16  0.0000000E+00  0.5952381E-02
      1         -0.961341   1.000000
      2          2.087651   1.000000
      3          4.147927   0.000000
      4          4.963419   0.000000
      5          7.165650   0.000000
      6          7.716478   0.000000
      7          9.508450   0.000000
      8         11.057176   0.000000
 
  0.5000000E+00  0.1059404E-16  0.0000000E+00  0.2976190E-02
      1          0.460999   1.000000
      2          0.466568   1.000000
      3          5.346878   0.000000
      4          5.715285   0.000000
      5          6.063889   0.000000
      6          6.427473   0.000000
      7          9.395316   0.000000
      8         10.858529   0.000000
 
  0.8333333E-01  0.8333333E-01  0.0000000E+00  0.5952381E-02
      1         -3.887806   1.000000
      2          1.422399   1.000000
      3          1.960507   1.000000
      4          9.866698   0.000000
      5         10.146093   0.000000
      6         14.151103   0.000000
      7         14.169651   0.000000
      8         14.490681   0.000000
 
  0.1666667E+00  0.8333333E-01  0.0000000E+00  0.1190476E-01
      1         -3.348840   1.000000
      2          1.917627   1.000000
      3          2.468003   0.949975
      4          7.570608   0.000000
      5          9.038270   0.000000
      6         12.337108   0.000000
      7         12.675097   0.000000
      8         13.967900   0.000000
 
  0.2500000E+00  0.8333333E-01  0.0000000E+00  0.1190476E-01
      1         -2.546081   1.000000
      2          2.661218   0.138328
      3          3.156970   0.000000
      4          5.419707   0.000000
      5          8.246652   0.000000
      6         10.142425   0.000000
      7         10.958346   0.000000
      8         13.173303   0.000000
 
  0.3333333E+00  0.8333333E-01  0.0000000E+00  0.1190476E-01
      1         -1.486400   1.000000
      2          2.985790   0.000000
      3          3.653128   0.000000
      4          4.567978   0.000000
      5          7.591143   0.000000
      6          8.158019   0.000000
      7          9.375004   0.000000
      8         12.654751   0.000000
 
  0.4166667E+00  0.8333333E-01  0.0000000E+00  0.1190476E-01
      1         -0.180057   1.000000
      2          1.352287   1.000000
      3          4.883977   0.000000
      4          5.582500   0.000000
      5          6.426800   0.000000
      6          6.751706   0.000000
      7          8.409194   0.000000
      8         12.396716   0.000000
 
  0.1666667E+00  0.1666667E+00  0.0000000E+00  0.5952381E-02
      1         -2.679394   1.000000
      2          2.537245   0.747099
      3          3.065730   0.000000
      4          6.520680   0.000000
      5          6.943392   0.000000
      6         11.202586   0.000000
      7         11.910926   0.000000
      8         11.998933   0.000000
 
  0.2500000E+00  0.1666667E+00  0.0000000E+00  0.1190476E-01
      1         -1.750129   1.000000
      2          3.405317   0.000000
      3          3.638300   0.000000
      4          4.812846   0.000000
      5          6.204983   0.000000
      6          9.366370   0.000000
      7         10.370637   0.000000
      8         11.001551   0.000000
 
  0.3333333E+00  0.1666667E+00  0.0000000E+00  0.1190476E-01
      1         -0.569436   1.000000
      2          2.463201   0.956600
      3          4.519522   0.000000
      4          4.908964   0.000000
      5          6.046416   0.000000
      6          7.530610   0.000000
      7          8.750501   0.000000
      8         10.589103   0.000000
 
  0.4166667E+00  0.1666667E+00  0.0000000E+00  0.5952381E-02
      1          0.847146   1.000000
      2          0.850558   1.000000
      3          5.128292   0.000000
      4          5.710421   0.000000
      5          6.093579   0.000000
      6          6.405095   0.000000
      7          7.802034   0.000000
      8         10.456373   0.000000
 
  0.2500000E+00  0.2500000E+00  0.0000000E+00  0.5952381E-02
      1         -0.699702   1.000000
      2          3.611957   0.000000
      3          3.881682   0.000000
      4          4.396632   0.000000
      5          5.654432   0.000000
      6          8.632630   0.000000
      7          9.242795   0.000000
      8          9.622452   0.000000
 
  0.3333333E+00  0.2500000E+00  0.0000000E+00  0.1190476E-01
      1          0.594394   1.000000
      2          2.110341   1.000000
      3          3.573538   0.000000
      4          5.622262   0.000000
      5          6.523669   0.000000
      6          7.146935   0.000000
      7          8.422998   0.000000
      8          8.747817   0.000000
 
  0.3333333E+00  0.3333333E+00  0.0000000E+00  0.1984127E-02
      1          1.984860   1.000000
      2          1.991638   1.000000
      3          1.991643   1.000000
      4          6.803538   0.000000
      5          6.803539   0.000000
      6          7.102747   0.000000
      7          7.533718   0.000000
      8          8.716937   0.000000
 
  0.0000000E+00  0.0000000E+00  0.1428571E+00  0.1984127E-02
      1         -4.176802   1.000000
      2         -0.169073   1.000000
      3          2.991419   0.000000
      4         13.541075   0.000000
      5         13.541084   0.000000
      6         13.610552   0.000000
      7         13.610557   0.000000
      8         13.620620   0.000000
 
  0.8333333E-01 -0.3033188E-17  0.1428571E+00  0.1190476E-01
      1         -4.041371   1.000000
      2         -0.039827   1.000000
      3          3.116380   0.000000
      4         11.273084   0.000000
      5         12.333123   0.000000
      6         13.054672   0.000000
      7         14.078024   0.000000
      8         14.915310   0.000000
 
  0.1666667E+00 -0.4111269E-17  0.1428571E+00  0.1190476E-01
      1         -3.636205   1.000000
      2          0.346526   1.000000
      3          3.486269   0.000000
      4          8.783289   0.000000
      5         11.309554   0.000000
      6         11.728757   0.000000
      7         12.817753   0.000000
      8         14.728468   0.000000
 
  0.2500000E+00  0.5297020E-17  0.1428571E+00  0.1190476E-01
      1         -2.964741   1.000000
      2          0.984904   1.000000
      3          4.067105   0.000000
      4          6.493286   0.000000
      5          9.871681   0.000000
      6         10.513674   0.000000
      7         11.441175   0.000000
      8         13.510206   0.000000
 
  0.3333333E+00  0.8275217E-18  0.1428571E+00  0.1190476E-01
      1         -2.032672   1.000000
      2          1.855588   1.000000
      3          4.061076   0.000000
      4          5.253337   0.000000
      5          7.907839   0.000000
      6          9.946211   0.000000
      7         10.246703   0.000000
      8         12.066621   0.000000
 
  0.4166667E+00 -0.1269204E-16  0.1428571E+00  0.1190476E-01
      1         -0.848457   1.000000
      2          2.141177   1.000000
      3          3.167110   0.000000
      4          5.931310   0.000000
      5          6.343520   0.000000
      6          8.886647   0.000000
      7          9.606305   0.000000
      8         11.263320   0.000000
 
  0.5000000E+00  0.1059404E-16  0.1428571E+00  0.5952381E-02
      1          0.571794   1.000000
      2          0.573759   1.000000
      3          4.436878   0.000000
      4          4.475099   0.000000
      5          7.467157   0.000000
      6          7.502200   0.000000
      7          9.493112   0.000000
      8         11.027799   0.000000
 
  0.8333333E-01  0.8333333E-01  0.1428571E+00  0.1190476E-01
      1         -3.771065   1.000000
      2          0.217986   1.000000
      3          3.364068   0.000000
      4          9.959360   0.000000
      5         10.241077   0.000000
      6         13.484678   0.000000
      7         13.605156   0.000000
      8         13.989691   0.000000
 
  0.1666667E+00  0.8333333E-01  0.1428571E+00  0.2380952E-01
      1         -3.232758   1.000000
      2          0.730594   1.000000
      3          3.845851   0.000000
      4          7.677604   0.000000
      5          9.122441   0.000000
      6         11.350883   0.000000
      7         12.704110   0.000000
      8         13.541058   0.000000
 
  0.2500000E+00  0.8333333E-01  0.1428571E+00  0.2380952E-01
      1         -2.430986   1.000000
      2          1.488862   1.000000
      3          4.428707   0.000000
      4          5.614759   0.000000
      5          8.242576   0.000000
      6          9.336108   0.000000
      7         11.729206   0.000000
      8         12.406691   0.000000
 
  0.3333333E+00  0.8333333E-01  0.1428571E+00  0.2380952E-01
      1         -1.372702   1.000000
      2          2.408482   0.993547
      3          3.378273   0.000000
      4          5.689972   0.000000
      5          6.951092   0.000000
      6          8.165778   0.000000
      7         10.262160   0.000000
      8         11.742875   0.000000
 
  0.4166667E+00  0.8333333E-01  0.1428571E+00  0.2380952E-01
      1         -0.068707   1.000000
      2          1.453490   1.000000
      3          3.843292   0.000000
      4          5.295100   0.000000
      5          6.727971   0.000000
      6          7.720461   0.000000
      7          8.941609   0.000000
      8         11.470063   0.000000
 
  0.1666667E+00  0.1666667E+00  0.1428571E+00  0.1190476E-01
      1         -2.564138   1.000000
      2          1.364447   1.000000
      3          4.401488   0.000000
      4          6.621697   0.000000
      5          7.068767   0.000000
      6         10.453511   0.000000
      7         10.621445   0.000000
      8         13.494503   0.000000
 
  0.2500000E+00  0.1666667E+00  0.1428571E+00  0.2380952E-01
      1         -1.636062   1.000000
      2          2.225848   1.000000
      3          4.429551   0.000000
      4          5.370218   0.000000
      5          6.394654   0.000000
      6          8.521310   0.000000
      7          9.911401   0.000000
      8         11.669560   0.000000
 
  0.3333333E+00  0.1666667E+00  0.1428571E+00  0.2380952E-01
      1         -0.457169   1.000000
      2          2.512132   0.846263
      3          3.523004   0.000000
      4          5.484604   0.000000
      5          6.285675   0.000000
      6          7.218221   0.000000
      7          9.393483   0.000000
      8         10.096546   0.000000
 
  0.4166667E+00  0.1666667E+00  0.1428571E+00  0.1190476E-01
      1          0.953906   1.000000
      2          0.959835   1.000000
      3          4.609383   0.000000
      4          4.850978   0.000000
      5          5.718640   0.000000
      6          7.772818   0.000000
      7          8.613547   0.000000
      8          9.629507   0.000000
 
  0.2500000E+00  0.2500000E+00  0.1428571E+00  0.1190476E-01
      1         -0.587178   1.000000
      2          3.074380   0.000000
      3          3.985323   0.000000
      4          4.235041   0.000000
      5          6.533744   0.000000
      6          7.913382   0.000000
      7          8.187504   0.000000
      8         11.018717   0.000000
 
  0.3333333E+00  0.2500000E+00  0.1428571E+00  0.2380952E-01
      1          0.704086   1.000000
      2          2.207861   1.000000
      3          3.616789   0.000000
      4          4.754694   0.000000
      5          6.124944   0.000000
      6          7.380211   0.000000
      7          8.285801   0.000000
      8          9.558633   0.000000
 
  0.3333333E+00  0.3333333E+00  0.1428571E+00  0.3968254E-02
      1          2.091797   1.000000
      2          2.091802   1.000000
      3          2.093094   1.000000
      4          5.885142   0.000000
      5          6.083231   0.000000
      6          6.083234   0.000000
      7          8.971484   0.000000
      8          9.642114   0.000000
 
  0.0000000E+00  0.0000000E+00  0.2857143E+00  0.1984127E-02
      1         -3.826003   1.000000
      2         -1.406952   1.000000
      3          4.835466   0.000000
      4         11.408279   0.000000
      5         13.806436   0.000000
      6         13.806446   0.000000
      7         13.838994   0.000000
      8         13.838996   0.000000
 
  0.8333333E-01 -0.3033188E-17  0.2857143E+00  0.1190476E-01
      1         -3.691055   1.000000
      2         -1.275533   1.000000
      3          4.955284   0.000000
      4         11.264878   0.000000
      5         11.852754   0.000000
      6         12.619815   0.000000
      7         13.155003   0.000000
      8         14.487537   0.000000
 
  0.1666667E+00 -0.4111269E-17  0.2857143E+00  0.1190476E-01
      1         -3.287373   1.000000
      2         -0.882528   1.000000
      3          5.304522   0.000000
      4          9.083117   0.000000
      5         11.024667   0.000000
      6         11.602840   0.000000
      7         11.734253   0.000000
      8         13.477758   0.000000
 
  0.2500000E+00  0.5297020E-17  0.2857143E+00  0.1190476E-01
      1         -2.618372   1.000000
      2         -0.232039   1.000000
      3          5.751681   0.000000
      4          6.920078   0.000000
      5          8.848136   0.000000
      6         10.808170   0.000000
      7         11.546303   0.000000
      8         12.877978   0.000000
 
  0.3333333E+00  0.8275217E-18  0.2857143E+00  0.1190476E-01
      1         -1.689853   1.000000
      2          0.665962   1.000000
      3          4.496422   0.000000
      4          6.614909   0.000000
      5          7.080064   0.000000
      6         10.240494   0.000000
      7         10.956949   0.000000
      8         12.307405   0.000000
 
  0.4166667E+00 -0.1269204E-16  0.2857143E+00  0.1190476E-01
      1         -0.511063   1.000000
      2          1.728364   1.000000
      3          2.732946   0.017766
      4          4.907425   0.000000
      5          7.926850   0.000000
      6          9.900159   0.000000
      7         10.180294   0.000000
      8         11.948718   0.000000
 
  0.5000000E+00  0.1059404E-16  0.2857143E+00  0.5952381E-02
      1          0.890545   1.000000
      2          0.897927   1.000000
      3          3.294258   0.000000
      4          3.313267   0.000000
      5          8.931198   0.000000
      6          9.245840   0.000000
      7          9.786778   0.000000
      8         11.563811   0.000000
 
  0.8333333E-01  0.8333333E-01  0.2857143E+00  0.1190476E-01
      1         -3.421745   1.000000
      2         -1.013315   1.000000
      3          5.190726   0.000000
      4         10.203186   0.000000
      5         10.512841   0.000000
      6         11.686996   0.000000
      7         12.652955   0.000000
      8         12.910205   0.000000
 
  0.1666667E+00  0.8333333E-01  0.2857143E+00  0.2380952E-01
      1         -2.885397   1.000000
      2         -0.491494   1.000000
      3          5.629008   0.000000
      4          7.998420   0.000000
      5          9.302026   0.000000
      6         10.343113   0.000000
      7         11.574403   0.000000
      8         12.659298   0.000000
 
  0.2500000E+00  0.8333333E-01  0.2857143E+00  0.2380952E-01
      1         -2.086602   1.000000
      2          0.283668   1.000000
      3          5.491952   0.000000
      4          6.611769   0.000000
      5          7.766870   0.000000
      6          9.054132   0.000000
      7         10.938452   0.000000
      8         12.845676   0.000000
 
  0.3333333E+00  0.8333333E-01  0.2857143E+00  0.2380952E-01
      1         -1.032635   1.000000
      2          1.290943   1.000000
      3          3.659137   0.000000
      4          5.865895   0.000000
      5          7.310194   0.000000
      6          8.590636   0.000000
      7         10.463192   0.000000
      8         11.918319   0.000000
 
  0.4166667E+00  0.8333333E-01  0.2857143E+00  0.2380952E-01
      1          0.263293   1.000000
      2          1.715830   1.000000
      3          2.743743   0.012069
      4          4.160075   0.000000
      5          7.731828   0.000000
      6          8.928025   0.000000
      7         10.101875   0.000000
      8         10.707469   0.000000
 
  0.1666667E+00  0.1666667E+00  0.2857143E+00  0.1190476E-01
      1         -2.219248   1.000000
      2          0.155399   1.000000
      3          6.027008   0.000000
      4          6.917459   0.000000
      5          7.463763   0.000000
      6          9.379926   0.000000
      7          9.576035   0.000000
      8         13.190352   0.000000
 
  0.2500000E+00  0.1666667E+00  0.2857143E+00  0.2380952E-01
      1         -1.294827   1.000000
      2          1.047019   1.000000
      3          4.859602   0.000000
      4          6.175774   0.000000
      5          6.949787   0.000000
      6          7.925324   0.000000
      7          8.928699   0.000000
      8         13.297295   0.000000
 
  0.3333333E+00  0.1666667E+00  0.2857143E+00  0.2380952E-01
      1         -0.121721   1.000000
      2          2.095274   1.000000
      3          3.111497   0.000000
      4          5.154648   0.000000
      5          6.177036   0.000000
      6          8.099627   0.000000
      7          8.997178   0.000000
      8         11.588175   0.000000
 
  0.4166667E+00  0.1666667E+00  0.2857143E+00  0.1190476E-01
      1          1.269020   1.000000
      2          1.280744   1.000000
      3          3.631293   0.000000
      4          3.675207   0.000000
      5          6.012316   0.000000
      6          8.117870   0.000000
      7          9.975398   0.000000
      8         10.200800   0.000000
 
  0.2500000E+00  0.2500000E+00  0.2857143E+00  0.1190476E-01
      1         -0.250818   1.000000
      2          2.027696   1.000000
      3          4.289470   0.000000
      4          4.473373   0.000000
      5          6.594924   0.000000
      6          6.863734   0.000000
      7          8.703135   0.000000
      8         12.806688   0.000000
 
  0.3333333E+00  0.2500000E+00  0.2857143E+00  0.2380952E-01
      1          1.030528   1.000000
      2          2.452837   0.968493
      3          3.363882   0.000000
      4          4.160888   0.000000
      5          5.149800   0.000000
      6          6.503266   0.000000
      7          9.799439   0.000000
      8         11.260301   0.000000
 
  0.3333333E+00  0.3333333E+00  0.2857143E+00  0.3968254E-02
      1          2.375596   0.998419
      2          2.375601   0.998418
      3          2.417894   0.990695
      4          4.694658   0.000000
      5          5.051564   0.000000
      6          5.051569   0.000000
      7         10.821311   0.000000
      8         11.297887   0.000000
 
  0.0000000E+00  0.0000000E+00  0.4285714E+00  0.1984127E-02
      1         -3.244231   1.000000
      2         -2.435794   1.000000
      3          6.871701   0.000000
      4          9.078524   0.000000
      5         14.138645   0.000000
      6         14.138649   0.000000
      7         14.143213   0.000000
      8         14.143225   0.000000
 
  0.8333333E-01 -0.3033188E-17  0.4285714E+00  0.1190476E-01
      1         -3.110100   1.000000
      2         -2.302826   1.000000
      3          6.983318   0.000000
      4          9.171262   0.000000
      5         12.096674   0.000000
      6         12.669650   0.000000
      7         13.093596   0.000000
      8         13.740533   0.000000
 
  0.1666667E+00 -0.4111269E-17  0.4285714E+00  0.1190476E-01
      1         -2.708885   1.000000
      2         -1.905103   1.000000
      3          7.289628   0.000000
      4          9.225068   0.000000
      5          9.828360   0.000000
      6         10.409942   0.000000
      7         12.092141   0.000000
      8         12.777623   0.000000
 
  0.2500000E+00  0.5297020E-17  0.4285714E+00  0.1190476E-01
      1         -2.044022   1.000000
      2         -1.246252   1.000000
      3          7.011632   0.000000
      4          7.748958   0.000000
      5          8.320543   0.000000
      6         10.151443   0.000000
      7         11.299912   0.000000
      8         11.989867   0.000000
 
  0.3333333E+00  0.8275217E-18  0.4285714E+00  0.1190476E-01
      1         -1.121668   1.000000
      2         -0.333367   1.000000
      3          5.056695   0.000000
      4          5.805728   0.000000
      5          8.831857   0.000000
      6         10.640688   0.000000
      7         10.731866   0.000000
      8         11.421107   0.000000
 
  0.4166667E+00 -0.1269204E-16  0.4285714E+00  0.1190476E-01
      1          0.046464   1.000000
      2          0.812524   1.000000
      3          3.206300   0.000000
      4          3.951752   0.000000
      5          9.680609   0.000000
      6         10.390738   0.000000
      7         10.844589   0.000000
      8         11.078640   0.000000
 
  0.5000000E+00  0.1059404E-16  0.4285714E+00  0.5952381E-02
      1          1.372180   1.000000
      2          1.386812   1.000000
      3          2.383254   0.997767
      4          2.405905   0.994179
      5         10.248912   0.000000
      6         10.277015   0.000000
      7         10.725257   0.000000
      8         10.964350   0.000000
 
  0.8333333E-01  0.8333333E-01  0.4285714E+00  0.1190476E-01
      1         -2.842432   1.000000
      2         -2.037478   1.000000
      3          7.196654   0.000000
      4          9.317494   0.000000
      5         10.760010   0.000000
      6         10.853338   0.000000
      7         11.939283   0.000000
      8         12.081065   0.000000
 
  0.1666667E+00  0.8333333E-01  0.4285714E+00  0.2380952E-01
      1         -2.309385   1.000000
      2         -1.509173   1.000000
      3          7.501202   0.000000
      4          8.514750   0.000000
      5          9.001616   0.000000
      6          9.644183   0.000000
      7         10.634352   0.000000
      8         11.193451   0.000000
 
  0.2500000E+00  0.8333333E-01  0.4285714E+00  0.2380952E-01
      1         -1.515696   1.000000
      2         -0.723030   1.000000
      3          6.137912   0.000000
      4          6.874817   0.000000
      5          8.337266   0.000000
      6          9.393990   0.000000
      7         10.122749   0.000000
      8         11.172183   0.000000
 
  0.3333333E+00  0.8333333E-01  0.4285714E+00  0.2380952E-01
      1         -0.469537   1.000000
      2          0.309972   1.000000
      3          4.192636   0.000000
      4          4.937567   0.000000
      5          8.523186   0.000000
      6          9.235596   0.000000
      7         10.131730   0.000000
      8         11.845757   0.000000
 
  0.4166667E+00  0.8333333E-01  0.4285714E+00  0.2380952E-01
      1          0.806739   1.000000
      2          1.507740   1.000000
      3          2.519124   0.821648
      4          3.208776   0.000000
      5          8.417291   0.000000
      6          9.136659   0.000000
      7         10.976640   0.000000
      8         12.093460   0.000000
 
  0.1666667E+00  0.1666667E+00  0.4285714E+00  0.1190476E-01
      1         -1.647466   1.000000
      2         -0.853441   1.000000
      3          7.309908   0.000000
      4          7.359544   0.000000
      5          7.925503   0.000000
      6          8.423546   0.000000
      7          9.419161   0.000000
      8         11.040469   0.000000
 
  0.2500000E+00  0.1666667E+00  0.4285714E+00  0.2380952E-01
      1         -0.729451   1.000000
      2          0.054480   1.000000
      3          5.396203   0.000000
      4          6.048991   0.000000
      5          7.074115   0.000000
      6          7.734165   0.000000
      7          9.727862   0.000000
      8         11.766861   0.000000
 
  0.3333333E+00  0.1666667E+00  0.4285714E+00  0.2380952E-01
      1          0.432129   1.000000
      2          1.191637   1.000000
      3          3.574309   0.000000
      4          4.295166   0.000000
      5          6.669369   0.000000
      6          7.390208   0.000000
      7         10.694738   0.000000
      8         12.770676   0.000000
 
  0.4166667E+00  0.1666667E+00  0.4285714E+00  0.1190476E-01
      1          1.744560   1.000000
      2          1.757473   1.000000
      3          2.769793   0.004354
      4          2.773715   0.003694
      5          6.541132   0.000000
      6          7.272015   0.000000
      7         11.868961   0.000000
      8         12.061403   0.000000
 
  0.2500000E+00  0.2500000E+00  0.4285714E+00  0.1190476E-01
      1          0.305322   1.000000
      2          1.072334   1.000000
      3          4.743435   0.000000
      4          4.871266   0.000000
      5          5.860394   0.000000
      6          6.002409   0.000000
      7         10.580275   0.000000
      8         12.700362   0.000000
 
  0.3333333E+00  0.2500000E+00  0.4285714E+00  0.2380952E-01
      1          1.561901   1.000000
      2          2.235757   1.000000
      3          3.246555   0.000000
      4          3.836568   0.000000
      5          4.963551   0.000000
      6          5.597277   0.000000
      7         11.756019   0.000000
      8         13.158972   0.000000
 
  0.3333333E+00  0.3333333E+00  0.4285714E+00  0.3968254E-02
      1          2.736272   0.015806
      2          2.736275   0.015804
      3          2.959567   0.000000
      4          3.718490   0.000000
      5          4.288281   0.000000
      6          4.288284   0.000000
      7         12.891712   0.000000
      8         13.153455   0.000000
