 vasp.6.3.1 04May22 (build Jun 07 2022 20:23:04) complex                        
  
 executed on             LinuxIFC date 2024.04.20  16:34:20
 running on   32 total cores
 distrk:  each k-point on    8 cores,    4 groups
 distr:  one band on NCORE=   1 cores,    8 groups


--------------------------------------------------------------------------------------------------------


 INCAR:
   ALGO = Normal
   PREC = Normal
   LREAL = False
   EDIFF = 1e-07
   ENCUT = 400.0
   LASPH = True
   NELM = 100
   ISIF = 3
   IBRION = 2
   EDIFFG = -0.005
   NSW = 20
   ISMEAR = 0
   SIGMA = 0.1
   LWAVE = False
   LCHARG = False
   LORBIT = 10
   KPAR = 4

 POTCAR:    PAW_PBE Mg 13Apr2007                  
 -----------------------------------------------------------------------------
|                                                                             |
|           W    W    AA    RRRRR   N    N  II  N    N   GGGG   !!!           |
|           W    W   A  A   R    R  NN   N  II  NN   N  G    G  !!!           |
|           W    W  A    A  R    R  N N  N  II  N N  N  G       !!!           |
|           W WW W  AAAAAA  RRRRR   N  N N  II  N  N N  G  GGG   !            |
|           WW  WW  A    A  R   R   N   NN  II  N   NN  G    G                |
|           W    W  A    A  R    R  N    N  II  N    N   GGGG   !!!           |
|                                                                             |
|     For optimal performance we recommend to set                             |
|       NCORE = 2 up to number-of-cores-per-socket                            |
|     NCORE specifies how many cores store one orbital (NPAR=cpu/NCORE).      |
|     This setting can greatly improve the performance of VASP for DFT.       |
|     The default, NCORE=1 might be grossly inefficient on modern             |
|     multi-core architectures or massively parallel machines. Do your        |
|     own testing! More info at https://www.vasp.at/wiki/index.php/NCORE      |
|     Unfortunately you need to use the default for GW and RPA                |
|     calculations (for HF NCORE is supported but not extensively tested      |
|     yet).                                                                   |
|                                                                             |
 -----------------------------------------------------------------------------

 POTCAR:    PAW_PBE Mg 13Apr2007                  
   SHA256 =  a90315392b5cf46bd986ff2010bfd53a40dec98e36f8d1f6277412e9d0e81a9f Mg/POTCAR             
   COPYR  = (c) Copyright 13Apr2007 Georg Kresse                                                    
   COPYR  = This file is part of the software VASP. Any use, copying, and all other rights are regul
   COPYR  = If you do not have a valid VASP license, you may not use, copy or distribute this file. 
   VRHFIN =Mg: s2p0                                                                                 
   LEXCH  = PE                                                                                      
   EATOM  =    23.0369 eV,    1.6932 Ry                                                             
                                                                                                    
   TITEL  = PAW_PBE Mg 13Apr2007                                                                    
   LULTRA =        F    use ultrasoft PP ?                                                          
   IUNSCR =        1    unscreen: 0-lin 1-nonlin 2-no                                               
   RPACOR =    1.500    partial core radius                                                         
   POMASS =   24.305; ZVAL   =    2.000    mass and valenz                                          
   RCORE  =    2.000    outmost cutoff radius                                                       
   RWIGS  =    2.880; RWIGS  =    1.524    wigner-seitz radius (au A)                               
   ENMAX  =  200.000; ENMIN  =  100.000 eV                                                          
   RCLOC  =    1.506    cutoff for local pot                                                        
   LCOR   =        T    correct aug charges                                                         
   LPAW   =        T    paw PP                                                                      
   EAUG   =  454.734                                                                                
   DEXC   =    0.000                                                                                
   RMAX   =    2.045    core radius for proj-oper                                                   
   RAUG   =    1.300    factor for augmentation sphere                                              
   RDEP   =    2.025    radius for radial grids                                                     
   RDEPT  =    1.942    core radius for aug-charge                                                  
                                                                                                    
   Atomic configuration                                                                             
    6 entries                                                                                       
     n  l   j            E        occ.                                                              
     1  0  0.50     -1259.6230   2.0000                                                             
     2  0  0.50       -79.8442   2.0000                                                             
     2  1  1.50       -46.6121   6.0000                                                             
     3  0  0.50        -4.7055   2.0000                                                             
     3  1  0.50        -1.3660   0.0000                                                             
     3  2  1.50        -1.3606   0.0000                                                             
   Description                                                                                      
     l       E           TYP  RCUT    TYP  RCUT                                                     
     0     -4.7054661     23  2.000                                                                 
     0     27.2116520     23  2.000                                                                 
     1      1.3605826     23  2.000                                                                 
     1     27.2116520     23  2.000                                                                 
     2     -1.3605826     23  2.000                                                                 
  local pseudopotential read in
  partial core-charges read in
  partial kinetic energy density read in
  atomic valenz-charges read in
  non local Contribution for L=           0  read in
    real space projection operators read in
  non local Contribution for L=           0  read in
    real space projection operators read in
  non local Contribution for L=           1  read in
    real space projection operators read in
  non local Contribution for L=           1  read in
    real space projection operators read in
  non local Contribution for L=           2  read in
    real space projection operators read in
    PAW grid and wavefunctions read in
 
   number of l-projection  operators is LMAX  =           5
   number of lm-projection operators is LMMAX =          13
 
  PAW_PBE Mg 13Apr2007                  :
 energy of atom  1       EATOM=  -23.0369
 kinetic energy error for atom=    0.0001 (will be added to EATOM!!)
 
 
 POSCAR: Mg2
  positions in direct lattice
  No initial velocities read in
 exchange correlation table for  LEXCH =        8
   RHO(1)=    0.500       N(1)  =     2000
   RHO(2)=  100.500       N(2)  =     4000

 VTST: version 4.2, (08/11/21)

 CHAIN: initializing optimizer
 
 OPT: Using VASP Conjugate-Gradient optimizer
 CHAIN: Read ICHAIN            0
 
 POSCAR: Mg2
  positions in direct lattice
  No initial velocities read in
 


--------------------------------------------------------------------------------------------------------


 ion  position               nearest neighbor table
   1  0.333  0.667  0.250-   2 3.16   2 3.16   2 3.16   2 3.16   2 3.16   2 3.16
   2  0.667  0.333  0.750-   1 3.16   1 3.16   1 3.16   1 3.16   1 3.16   1 3.16
 
  LATTYP: Found a hexagonal cell.
 ALAT       =     3.1720232863
 C/A-ratio  =     1.6207967080
  
  Lattice vectors:
  
 A1 = (   3.1720232863,   0.0000000000,   0.0000000000)
 A2 = (  -1.5860116431,   2.7470527473,   0.0000000000)
 A3 = (   0.0000000000,   0.0000000000,   5.1412049000)


Analysis of symmetry for initial positions (statically):
=====================================================================
 Subroutine PRICEL returns:
 Original cell was already a primitive cell.
 

 Routine SETGRP: Setting up the symmetry group for a 
 hexagonal supercell.


 Subroutine GETGRP returns: Found 24 space group operations
 (whereof 12 operations were pure point group operations)
 out of a pool of 24 trial point group operations.


The static configuration has the point symmetry D_3d.
 The point group associated with its full space group is D_6h.


Analysis of symmetry for dynamics (positions and initial velocities):
=====================================================================
 Subroutine PRICEL returns:
 Original cell was already a primitive cell.
 

 Routine SETGRP: Setting up the symmetry group for a 
 hexagonal supercell.


 Subroutine GETGRP returns: Found 24 space group operations
 (whereof 12 operations were pure point group operations)
 out of a pool of 24 trial point group operations.


The dynamic configuration has the point symmetry D_3d.
 The point group associated with its full space group is D_6h.


 Subroutine INISYM returns: Found 24 space group operations
 (whereof 12 operations are pure point group operations),
 and found     1 'primitive' translations


----------------------------------------------------------------------------------------

                                     Primitive cell                                     

  volume of cell :      44.7990

  direct lattice vectors                    reciprocal lattice vectors
     3.172023286  0.000000000  0.000000000     0.315256198  0.182013251  0.000000000
    -1.586011643  2.747052747  0.000000000     0.000000000  0.364026501  0.000000000
     0.000000000  0.000000000  5.141204900     0.000000000  0.000000000  0.194506934

  length of vectors
     3.172023286  3.172023286  5.141204900     0.364026501  0.364026501  0.194506934

  position of ions in fractional coordinates (direct lattice)
     0.333333333  0.666666667  0.250000000
     0.666666667  0.333333333  0.750000000

  ion indices of the primitive-cell ions
   primitive index   ion index
                 1           1
                 2           2

----------------------------------------------------------------------------------------

 
 
 KPOINTS: Num irrep kpoints: 76                   

Automatic generation of k-mesh.
 Grid dimensions read from file:
 generate k-points for:   12   12    7

 Generating k-lattice:

  Cartesian coordinates                     Fractional coordinates (reciprocal lattice)
     0.026271350  0.015167771  0.000000000     0.083333333 -0.000000000  0.000000000
     0.000000000  0.030335542  0.000000000     0.000000000  0.083333333  0.000000000
     0.000000000  0.000000000  0.027786705     0.000000000  0.000000000  0.142857143

  Length of vectors
     0.030335542  0.030335542  0.027786705

  Shift w.r.t. Gamma in fractional coordinates (k-lattice)
     0.000000000  0.000000000  0.000000000

 
 Subroutine IBZKPT returns following result:
 ===========================================
 
 Found     76 irreducible k-points:
 
 Following reciprocal coordinates:
            Coordinates               Weight
  0.000000  0.000000  0.000000      1.000000
  0.083333 -0.000000  0.000000      6.000000
  0.166667 -0.000000  0.000000      6.000000
  0.250000  0.000000  0.000000      6.000000
  0.333333  0.000000  0.000000      6.000000
  0.416667 -0.000000  0.000000      6.000000
  0.500000  0.000000  0.000000      3.000000
  0.083333  0.083333  0.000000      6.000000
  0.166667  0.083333  0.000000     12.000000
  0.250000  0.083333  0.000000     12.000000
  0.333333  0.083333  0.000000     12.000000
  0.416667  0.083333  0.000000     12.000000
  0.166667  0.166667  0.000000      6.000000
  0.250000  0.166667  0.000000     12.000000
  0.333333  0.166667  0.000000     12.000000
  0.416667  0.166667  0.000000      6.000000
  0.250000  0.250000  0.000000      6.000000
  0.333333  0.250000  0.000000     12.000000
  0.333333  0.333333  0.000000      2.000000
  0.000000  0.000000  0.142857      2.000000
  0.083333 -0.000000  0.142857     12.000000
  0.166667 -0.000000  0.142857     12.000000
  0.250000  0.000000  0.142857     12.000000
  0.333333  0.000000  0.142857     12.000000
  0.416667 -0.000000  0.142857     12.000000
  0.500000  0.000000  0.142857      6.000000
  0.083333  0.083333  0.142857     12.000000
  0.166667  0.083333  0.142857     24.000000
  0.250000  0.083333  0.142857     24.000000
  0.333333  0.083333  0.142857     24.000000
  0.416667  0.083333  0.142857     24.000000
  0.166667  0.166667  0.142857     12.000000
  0.250000  0.166667  0.142857     24.000000
  0.333333  0.166667  0.142857     24.000000
  0.416667  0.166667  0.142857     12.000000
  0.250000  0.250000  0.142857     12.000000
  0.333333  0.250000  0.142857     24.000000
  0.333333  0.333333  0.142857      4.000000
  0.000000  0.000000  0.285714      2.000000
  0.083333 -0.000000  0.285714     12.000000
  0.166667 -0.000000  0.285714     12.000000
  0.250000  0.000000  0.285714     12.000000
  0.333333  0.000000  0.285714     12.000000
  0.416667 -0.000000  0.285714     12.000000
  0.500000  0.000000  0.285714      6.000000
  0.083333  0.083333  0.285714     12.000000
  0.166667  0.083333  0.285714     24.000000
  0.250000  0.083333  0.285714     24.000000
  0.333333  0.083333  0.285714     24.000000
  0.416667  0.083333  0.285714     24.000000
  0.166667  0.166667  0.285714     12.000000
  0.250000  0.166667  0.285714     24.000000
  0.333333  0.166667  0.285714     24.000000
  0.416667  0.166667  0.285714     12.000000
  0.250000  0.250000  0.285714     12.000000
  0.333333  0.250000  0.285714     24.000000
  0.333333  0.333333  0.285714      4.000000
  0.000000  0.000000  0.428571      2.000000
  0.083333 -0.000000  0.428571     12.000000
  0.166667 -0.000000  0.428571     12.000000
  0.250000  0.000000  0.428571     12.000000
  0.333333  0.000000  0.428571     12.000000
  0.416667 -0.000000  0.428571     12.000000
  0.500000  0.000000  0.428571      6.000000
  0.083333  0.083333  0.428571     12.000000
  0.166667  0.083333  0.428571     24.000000
  0.250000  0.083333  0.428571     24.000000
  0.333333  0.083333  0.428571     24.000000
  0.416667  0.083333  0.428571     24.000000
  0.166667  0.166667  0.428571     12.000000
  0.250000  0.166667  0.428571     24.000000
  0.333333  0.166667  0.428571     24.000000
  0.416667  0.166667  0.428571     12.000000
  0.250000  0.250000  0.428571     12.000000
  0.333333  0.250000  0.428571     24.000000
  0.333333  0.333333  0.428571      4.000000
 
 Following cartesian coordinates:
            Coordinates               Weight
  0.000000  0.000000  0.000000      1.000000
  0.026271  0.015168  0.000000      6.000000
  0.052543  0.030336  0.000000      6.000000
  0.078814  0.045503  0.000000      6.000000
  0.105085  0.060671  0.000000      6.000000
  0.131357  0.075839  0.000000      6.000000
  0.157628  0.091007  0.000000      3.000000
  0.026271  0.045503  0.000000      6.000000
  0.052543  0.060671  0.000000     12.000000
  0.078814  0.075839  0.000000     12.000000
  0.105085  0.091007  0.000000     12.000000
  0.131357  0.106174  0.000000     12.000000
  0.052543  0.091007  0.000000      6.000000
  0.078814  0.106174  0.000000     12.000000
  0.105085  0.121342  0.000000     12.000000
  0.131357  0.136510  0.000000      6.000000
  0.078814  0.136510  0.000000      6.000000
  0.105085  0.151678  0.000000     12.000000
  0.105085  0.182013  0.000000      2.000000
  0.000000  0.000000  0.027787      2.000000
  0.026271  0.015168  0.027787     12.000000
  0.052543  0.030336  0.027787     12.000000
  0.078814  0.045503  0.027787     12.000000
  0.105085  0.060671  0.027787     12.000000
  0.131357  0.075839  0.027787     12.000000
  0.157628  0.091007  0.027787      6.000000
  0.026271  0.045503  0.027787     12.000000
  0.052543  0.060671  0.027787     24.000000
  0.078814  0.075839  0.027787     24.000000
  0.105085  0.091007  0.027787     24.000000
  0.131357  0.106174  0.027787     24.000000
  0.052543  0.091007  0.027787     12.000000
  0.078814  0.106174  0.027787     24.000000
  0.105085  0.121342  0.027787     24.000000
  0.131357  0.136510  0.027787     12.000000
  0.078814  0.136510  0.027787     12.000000
  0.105085  0.151678  0.027787     24.000000
  0.105085  0.182013  0.027787      4.000000
  0.000000  0.000000  0.055573      2.000000
  0.026271  0.015168  0.055573     12.000000
  0.052543  0.030336  0.055573     12.000000
  0.078814  0.045503  0.055573     12.000000
  0.105085  0.060671  0.055573     12.000000
  0.131357  0.075839  0.055573     12.000000
  0.157628  0.091007  0.055573      6.000000
  0.026271  0.045503  0.055573     12.000000
  0.052543  0.060671  0.055573     24.000000
  0.078814  0.075839  0.055573     24.000000
  0.105085  0.091007  0.055573     24.000000
  0.131357  0.106174  0.055573     24.000000
  0.052543  0.091007  0.055573     12.000000
  0.078814  0.106174  0.055573     24.000000
  0.105085  0.121342  0.055573     24.000000
  0.131357  0.136510  0.055573     12.000000
  0.078814  0.136510  0.055573     12.000000
  0.105085  0.151678  0.055573     24.000000
  0.105085  0.182013  0.055573      4.000000
  0.000000  0.000000  0.083360      2.000000
  0.026271  0.015168  0.083360     12.000000
  0.052543  0.030336  0.083360     12.000000
  0.078814  0.045503  0.083360     12.000000
  0.105085  0.060671  0.083360     12.000000
  0.131357  0.075839  0.083360     12.000000
  0.157628  0.091007  0.083360      6.000000
  0.026271  0.045503  0.083360     12.000000
  0.052543  0.060671  0.083360     24.000000
  0.078814  0.075839  0.083360     24.000000
  0.105085  0.091007  0.083360     24.000000
  0.131357  0.106174  0.083360     24.000000
  0.052543  0.091007  0.083360     12.000000
  0.078814  0.106174  0.083360     24.000000
  0.105085  0.121342  0.083360     24.000000
  0.131357  0.136510  0.083360     12.000000
  0.078814  0.136510  0.083360     12.000000
  0.105085  0.151678  0.083360     24.000000
  0.105085  0.182013  0.083360      4.000000
 


--------------------------------------------------------------------------------------------------------




 Dimension of arrays:
   k-points           NKPTS =     76   k-points in BZ     NKDIM =     76   number of bands    NBANDS=      8
   number of dos      NEDOS =    301   number of ions     NIONS =      2
   non local maximal  LDIM  =      5   non local SUM 2l+1 LMDIM =     13
   total plane-waves  NPLWV =   7168
   max r-space proj   IRMAX =      1   max aug-charges    IRDMAX=   6996
   dimension x,y,z NGX =    16 NGY =   16 NGZ =   28
   dimension x,y,z NGXF=    32 NGYF=   32 NGZF=   56
   support grid    NGXF=    32 NGYF=   32 NGZF=   56
   ions per type =               2
   NGX,Y,Z   is equivalent  to a cutoff of   8.39,  8.39,  9.05 a.u.
   NGXF,Y,Z  is equivalent  to a cutoff of  16.77, 16.77, 18.11 a.u.

 SYSTEM =  unknown system                          
 POSCAR =  Mg2                                     

 Startparameter for this run:
   NWRITE =      2    write-flag & timer
   PREC   = normal    normal or accurate (medium, high low for compatibility)
   ISTART =      0    job   : 0-new  1-cont  2-samecut
   ICHARG =      2    charge: 1-file 2-atom 10-const
   ISPIN  =      1    spin polarized calculation?
   LNONCOLLINEAR =      F non collinear calculations
   LSORBIT =      F    spin-orbit coupling
   INIWAV =      1    electr: 0-lowe 1-rand  2-diag
   LASPH  =      T    aspherical Exc in radial PAW
 Electronic Relaxation 1
   ENCUT  =  400.0 eV  29.40 Ry    5.42 a.u.   5.17  5.17  8.38*2*pi/ulx,y,z
   ENINI  =  400.0     initial cutoff
   ENAUG  =  454.7 eV  augmentation charge cutoff
   NELM   =    100;   NELMIN=  2; NELMDL= -5     # of ELM steps 
   EDIFF  = 0.1E-06   stopping-criterion for ELM
   LREAL  =      F    real-space projection
   NLSPLINE    = F    spline interpolate recip. space projectors
   LCOMPAT=      F    compatible to vasp.4.4
   GGA_COMPAT  = T    GGA compatible to vasp.4.4-vasp.4.6
   LMAXPAW     = -100 max onsite density
   LMAXMIX     =    2 max onsite mixed and CHGCAR
   VOSKOWN=      0    Vosko Wilk Nusair interpolation
   ROPT   =    0.00000
 Ionic relaxation
   EDIFFG = -.5E-02   stopping-criterion for IOM
   NSW    =     20    number of steps for IOM
   NBLOCK =      1;   KBLOCK =     20    inner block; outer block 
   IBRION =      2    ionic relax: 0-MD 1-quasi-New 2-CG
   NFREE  =      1    steps in history (QN), initial steepest desc. (CG)
   ISIF   =      3    stress and relaxation
   IWAVPR =     11    prediction:  0-non 1-charg 2-wave 3-comb
   ISYM   =      2    0-nonsym 1-usesym 2-fastsym
   LCORR  =      T    Harris-Foulkes like correction to forces

   POTIM  = 0.5000    time-step for ionic-motion
   TEIN   =    0.0    initial temperature
   TEBEG  =    0.0;   TEEND  =   0.0 temperature during run
   SMASS  =  -3.00    Nose mass-parameter (am)
   estimated Nose-frequenzy (Omega)   =  0.10E-29 period in steps = 0.13E+47 mass=  -0.230E-27a.u.
   SCALEE = 1.0000    scale energy and forces
   NPACO  =    256;   APACO  = 10.0  distance and # of slots for P.C.
   PSTRESS=    0.0 pullay stress

  Mass of Ions in am
   POMASS =  24.30
  Ionic Valenz
   ZVAL   =   2.00
  Atomic Wigner-Seitz radii
   RWIGS  =  -1.00
  virtual crystal weights 
   VCA    =   1.00
   NELECT =       4.0000    total number of electrons
   NUPDOWN=      -1.0000    fix difference up-down

 DOS related values:
   EMIN   =  10.00;   EMAX   =-10.00  energy-range for DOS
   EFERMI =   0.00
   ISMEAR =     0;   SIGMA  =   0.10  broadening in eV -4-tet -1-fermi 0-gaus

 Electronic relaxation 2 (details)
   IALGO  =     38    algorithm
   LDIAG  =      T    sub-space diagonalisation (order eigenvalues)
   LSUBROT=      F    optimize rotation matrix (better conditioning)
   TURBO    =      0    0=normal 1=particle mesh
   IRESTART =      0    0=no restart 2=restart with 2 vectors
   NREBOOT  =      0    no. of reboots
   NMIN     =      0    reboot dimension
   EREF     =   0.00    reference energy to select bands
   IMIX   =      4    mixing-type and parameters
     AMIX     =   0.40;   BMIX     =  1.00
     AMIX_MAG =   1.60;   BMIX_MAG =  1.00
     AMIN     =   0.10
     WC   =   100.;   INIMIX=   1;  MIXPRE=   1;  MAXMIX= -45

 Intra band minimization:
   WEIMIN = 0.0010     energy-eigenvalue tresh-hold
   EBREAK =  0.31E-08  absolut break condition
   DEPER  =   0.30     relativ break condition  

   TIME   =   0.40     timestep for ELM

  volume/ion in A,a.u.               =      22.40       151.16
  Fermi-wavevector in a.u.,A,eV,Ry     =   0.731710  1.382731  7.284544  0.535399
  Thomas-Fermi vector in A             =   1.823993
 
 Write flags
   LWAVE        =      F    write WAVECAR
   LDOWNSAMPLE  =      F    k-point downsampling of WAVECAR
   LCHARG       =      F    write CHGCAR
   LVTOT        =      F    write LOCPOT, total local potential
   LVHAR        =      F    write LOCPOT, Hartree potential only
   LELF         =      F    write electronic localiz. function (ELF)
   LORBIT       =     10    0 simple, 1 ext, 2 COOP (PROOUT), +10 PAW based schemes


 Dipole corrections
   LMONO  =      F    monopole corrections only (constant potential shift)
   LDIPOL =      F    correct potential (dipole corrections)
   IDIPOL =      0    1-x, 2-y, 3-z, 4-all directions 
   EPSILON=  1.0000000 bulk dielectric constant

 Exchange correlation treatment:
   GGA     =    --    GGA type
   LEXCH   =     8    internal setting for exchange type
   LIBXC   =     F    Libxc                    
   VOSKOWN =     0    Vosko Wilk Nusair interpolation
   LHFCALC =     F    Hartree Fock is set to
   LHFONE  =     F    Hartree Fock one center treatment
   AEXX    =    0.0000 exact exchange contribution

 Linear response parameters
   LEPSILON=     F    determine dielectric tensor
   LRPA    =     F    only Hartree local field effects (RPA)
   LNABLA  =     F    use nabla operator in PAW spheres
   LVEL    =     F    velocity operator in full k-point grid
   CSHIFT  =0.1000    complex shift for real part using Kramers Kronig
   OMEGAMAX=  -1.0    maximum frequency
   DEG_THRESHOLD= 0.2000000E-02 threshold for treating states as degnerate
   RTIME   =   -0.100 relaxation time in fs
  (WPLASMAI=    0.000 imaginary part of plasma frequency in eV, 0.658/RTIME)
   DFIELD  = 0.0000000 0.0000000 0.0000000 field for delta impulse in time
 
  Optional k-point grid parameters
   LKPOINTS_OPT  =     F    use optional k-point grid
   KPOINTS_OPT_MODE=     1    mode for optional k-point grid
 
 Orbital magnetization related:
   ORBITALMAG=     F  switch on orbital magnetization
   LCHIMAG   =     F  perturbation theory with respect to B field
   DQ        =  0.001000  dq finite difference perturbation B field
   LLRAUG    =     F  two centre corrections for induced B field



--------------------------------------------------------------------------------------------------------


 conjugate gradient relaxation of ions
 charge density and potential will be updated during run
 non-spin polarized calculation
 Variant of blocked Davidson
 Davidson routine will perform the subspace rotation
 perform sub-space diagonalisation
    after iterative eigenvector-optimisation
 modified Broyden-mixing scheme, WC =      100.0
 initial mixing is a Kerker type mixing with AMIX =  0.4000 and BMIX =      1.0000
 Hartree-type preconditioning will be used
 using additional bands            6
 reciprocal scheme for non local part
 use partial core corrections
 calculate Harris-corrections to forces 
   (improved forces if not selfconsistent)
 use gradient corrections 
 use of overlap-Matrix (Vanderbilt PP)
 Gauss-broadening in eV      SIGMA  =   0.10


--------------------------------------------------------------------------------------------------------


  energy-cutoff  :      400.00
  volume of cell :       44.80
      direct lattice vectors                 reciprocal lattice vectors
     3.172023286  0.000000000  0.000000000     0.315256198  0.182013251  0.000000000
    -1.586011643  2.747052747  0.000000000     0.000000000  0.364026501  0.000000000
     0.000000000  0.000000000  5.141204900     0.000000000  0.000000000  0.194506934

  length of vectors
     3.172023286  3.172023286  5.141204900     0.364026501  0.364026501  0.194506934


 
 k-points in units of 2pi/SCALE and weight: Num irrep kpoints: 76                   
   0.00000000  0.00000000  0.00000000       0.001
   0.02627135  0.01516777  0.00000000       0.006
   0.05254270  0.03033554  0.00000000       0.006
   0.07881405  0.04550331  0.00000000       0.006
   0.10508540  0.06067108  0.00000000       0.006
   0.13135675  0.07583885  0.00000000       0.006
   0.15762810  0.09100663  0.00000000       0.003
   0.02627135  0.04550331  0.00000000       0.006
   0.05254270  0.06067108  0.00000000       0.012
   0.07881405  0.07583885  0.00000000       0.012
   0.10508540  0.09100663  0.00000000       0.012
   0.13135675  0.10617440  0.00000000       0.012
   0.05254270  0.09100663  0.00000000       0.006
   0.07881405  0.10617440  0.00000000       0.012
   0.10508540  0.12134217  0.00000000       0.012
   0.13135675  0.13650994  0.00000000       0.006
   0.07881405  0.13650994  0.00000000       0.006
   0.10508540  0.15167771  0.00000000       0.012
   0.10508540  0.18201325  0.00000000       0.002
   0.00000000  0.00000000  0.02778670       0.002
   0.02627135  0.01516777  0.02778670       0.012
   0.05254270  0.03033554  0.02778670       0.012
   0.07881405  0.04550331  0.02778670       0.012
   0.10508540  0.06067108  0.02778670       0.012
   0.13135675  0.07583885  0.02778670       0.012
   0.15762810  0.09100663  0.02778670       0.006
   0.02627135  0.04550331  0.02778670       0.012
   0.05254270  0.06067108  0.02778670       0.024
   0.07881405  0.07583885  0.02778670       0.024
   0.10508540  0.09100663  0.02778670       0.024
   0.13135675  0.10617440  0.02778670       0.024
   0.05254270  0.09100663  0.02778670       0.012
   0.07881405  0.10617440  0.02778670       0.024
   0.10508540  0.12134217  0.02778670       0.024
   0.13135675  0.13650994  0.02778670       0.012
   0.07881405  0.13650994  0.02778670       0.012
   0.10508540  0.15167771  0.02778670       0.024
   0.10508540  0.18201325  0.02778670       0.004
   0.00000000  0.00000000  0.05557341       0.002
   0.02627135  0.01516777  0.05557341       0.012
   0.05254270  0.03033554  0.05557341       0.012
   0.07881405  0.04550331  0.05557341       0.012
   0.10508540  0.06067108  0.05557341       0.012
   0.13135675  0.07583885  0.05557341       0.012
   0.15762810  0.09100663  0.05557341       0.006
   0.02627135  0.04550331  0.05557341       0.012
   0.05254270  0.06067108  0.05557341       0.024
   0.07881405  0.07583885  0.05557341       0.024
   0.10508540  0.09100663  0.05557341       0.024
   0.13135675  0.10617440  0.05557341       0.024
   0.05254270  0.09100663  0.05557341       0.012
   0.07881405  0.10617440  0.05557341       0.024
   0.10508540  0.12134217  0.05557341       0.024
   0.13135675  0.13650994  0.05557341       0.012
   0.07881405  0.13650994  0.05557341       0.012
   0.10508540  0.15167771  0.05557341       0.024
   0.10508540  0.18201325  0.05557341       0.004
   0.00000000  0.00000000  0.08336011       0.002
   0.02627135  0.01516777  0.08336011       0.012
   0.05254270  0.03033554  0.08336011       0.012
   0.07881405  0.04550331  0.08336011       0.012
   0.10508540  0.06067108  0.08336011       0.012
   0.13135675  0.07583885  0.08336011       0.012
   0.15762810  0.09100663  0.08336011       0.006
   0.02627135  0.04550331  0.08336011       0.012
   0.05254270  0.06067108  0.08336011       0.024
   0.07881405  0.07583885  0.08336011       0.024
   0.10508540  0.09100663  0.08336011       0.024
   0.13135675  0.10617440  0.08336011       0.024
   0.05254270  0.09100663  0.08336011       0.012
   0.07881405  0.10617440  0.08336011       0.024
   0.10508540  0.12134217  0.08336011       0.024
   0.13135675  0.13650994  0.08336011       0.012
   0.07881405  0.13650994  0.08336011       0.012
   0.10508540  0.15167771  0.08336011       0.024
   0.10508540  0.18201325  0.08336011       0.004
 
 k-points in reciprocal lattice and weights: Num irrep kpoints: 76                   
   0.00000000  0.00000000  0.00000000       0.001
   0.08333333 -0.00000000  0.00000000       0.006
   0.16666667 -0.00000000  0.00000000       0.006
   0.25000000  0.00000000  0.00000000       0.006
   0.33333333  0.00000000  0.00000000       0.006
   0.41666667 -0.00000000  0.00000000       0.006
   0.50000000  0.00000000  0.00000000       0.003
   0.08333333  0.08333333  0.00000000       0.006
   0.16666667  0.08333333  0.00000000       0.012
   0.25000000  0.08333333  0.00000000       0.012
   0.33333333  0.08333333  0.00000000       0.012
   0.41666667  0.08333333  0.00000000       0.012
   0.16666667  0.16666667  0.00000000       0.006
   0.25000000  0.16666667  0.00000000       0.012
   0.33333333  0.16666667  0.00000000       0.012
   0.41666667  0.16666667  0.00000000       0.006
   0.25000000  0.25000000  0.00000000       0.006
   0.33333333  0.25000000  0.00000000       0.012
   0.33333333  0.33333333  0.00000000       0.002
   0.00000000  0.00000000  0.14285714       0.002
   0.08333333 -0.00000000  0.14285714       0.012
   0.16666667 -0.00000000  0.14285714       0.012
   0.25000000  0.00000000  0.14285714       0.012
   0.33333333  0.00000000  0.14285714       0.012
   0.41666667 -0.00000000  0.14285714       0.012
   0.50000000  0.00000000  0.14285714       0.006
   0.08333333  0.08333333  0.14285714       0.012
   0.16666667  0.08333333  0.14285714       0.024
   0.25000000  0.08333333  0.14285714       0.024
   0.33333333  0.08333333  0.14285714       0.024
   0.41666667  0.08333333  0.14285714       0.024
   0.16666667  0.16666667  0.14285714       0.012
   0.25000000  0.16666667  0.14285714       0.024
   0.33333333  0.16666667  0.14285714       0.024
   0.41666667  0.16666667  0.14285714       0.012
   0.25000000  0.25000000  0.14285714       0.012
   0.33333333  0.25000000  0.14285714       0.024
   0.33333333  0.33333333  0.14285714       0.004
   0.00000000  0.00000000  0.28571429       0.002
   0.08333333 -0.00000000  0.28571429       0.012
   0.16666667 -0.00000000  0.28571429       0.012
   0.25000000  0.00000000  0.28571429       0.012
   0.33333333  0.00000000  0.28571429       0.012
   0.41666667 -0.00000000  0.28571429       0.012
   0.50000000  0.00000000  0.28571429       0.006
   0.08333333  0.08333333  0.28571429       0.012
   0.16666667  0.08333333  0.28571429       0.024
   0.25000000  0.08333333  0.28571429       0.024
   0.33333333  0.08333333  0.28571429       0.024
   0.41666667  0.08333333  0.28571429       0.024
   0.16666667  0.16666667  0.28571429       0.012
   0.25000000  0.16666667  0.28571429       0.024
   0.33333333  0.16666667  0.28571429       0.024
   0.41666667  0.16666667  0.28571429       0.012
   0.25000000  0.25000000  0.28571429       0.012
   0.33333333  0.25000000  0.28571429       0.024
   0.33333333  0.33333333  0.28571429       0.004
   0.00000000  0.00000000  0.42857143       0.002
   0.08333333 -0.00000000  0.42857143       0.012
   0.16666667 -0.00000000  0.42857143       0.012
   0.25000000  0.00000000  0.42857143       0.012
   0.33333333  0.00000000  0.42857143       0.012
   0.41666667 -0.00000000  0.42857143       0.012
   0.50000000  0.00000000  0.42857143       0.006
   0.08333333  0.08333333  0.42857143       0.012
   0.16666667  0.08333333  0.42857143       0.024
   0.25000000  0.08333333  0.42857143       0.024
   0.33333333  0.08333333  0.42857143       0.024
   0.41666667  0.08333333  0.42857143       0.024
   0.16666667  0.16666667  0.42857143       0.012
   0.25000000  0.16666667  0.42857143       0.024
   0.33333333  0.16666667  0.42857143       0.024
   0.41666667  0.16666667  0.42857143       0.012
   0.25000000  0.25000000  0.42857143       0.012
   0.33333333  0.25000000  0.42857143       0.024
   0.33333333  0.33333333  0.42857143       0.004
 
 position of ions in fractional coordinates (direct lattice) 
   0.33333333  0.66666667  0.25000000
   0.66666667  0.33333333  0.75000000
 
 position of ions in cartesian coordinates  (Angst):
  -0.00000000  1.83136850  1.28530122
   1.58601164  0.91568425  3.85590367
 


--------------------------------------------------------------------------------------------------------


 k-point   1 :   0.0000 0.0000 0.0000  plane waves:     785
 k-point   2 :   0.0833-0.0000 0.0000  plane waves:     811
 k-point   3 :   0.1667-0.0000 0.0000  plane waves:     805
 k-point   4 :   0.2500 0.0000 0.0000  plane waves:     823
 k-point   5 :   0.3333 0.0000 0.0000  plane waves:     823
 k-point   6 :   0.4167-0.0000 0.0000  plane waves:     827
 k-point   7 :   0.5000 0.0000 0.0000  plane waves:     834
 k-point   8 :   0.0833 0.0833 0.0000  plane waves:     813
 k-point   9 :   0.1667 0.0833 0.0000  plane waves:     805
 k-point  10 :   0.2500 0.0833 0.0000  plane waves:     820
 k-point  11 :   0.3333 0.0833 0.0000  plane waves:     817
 k-point  12 :   0.4167 0.0833 0.0000  plane waves:     819
 k-point  13 :   0.1667 0.1667 0.0000  plane waves:     805
 k-point  14 :   0.2500 0.1667 0.0000  plane waves:     812
 k-point  15 :   0.3333 0.1667 0.0000  plane waves:     819
 k-point  16 :   0.4167 0.1667 0.0000  plane waves:     818
 k-point  17 :   0.2500 0.2500 0.0000  plane waves:     817
 k-point  18 :   0.3333 0.2500 0.0000  plane waves:     812
 k-point  19 :   0.3333 0.3333 0.0000  plane waves:     813
 k-point  20 :   0.0000 0.0000 0.1429  plane waves:     809
 k-point  21 :   0.0833-0.0000 0.1429  plane waves:     808
 k-point  22 :   0.1667-0.0000 0.1429  plane waves:     802
 k-point  23 :   0.2500 0.0000 0.1429  plane waves:     812
 k-point  24 :   0.3333 0.0000 0.1429  plane waves:     817
 k-point  25 :   0.4167-0.0000 0.1429  plane waves:     820
 k-point  26 :   0.5000 0.0000 0.1429  plane waves:     826
 k-point  27 :   0.0833 0.0833 0.1429  plane waves:     808
 k-point  28 :   0.1667 0.0833 0.1429  plane waves:     811
 k-point  29 :   0.2500 0.0833 0.1429  plane waves:     816
 k-point  30 :   0.3333 0.0833 0.1429  plane waves:     817
 k-point  31 :   0.4167 0.0833 0.1429  plane waves:     820
 k-point  32 :   0.1667 0.1667 0.1429  plane waves:     811
 k-point  33 :   0.2500 0.1667 0.1429  plane waves:     812
 k-point  34 :   0.3333 0.1667 0.1429  plane waves:     818
 k-point  35 :   0.4167 0.1667 0.1429  plane waves:     822
 k-point  36 :   0.2500 0.2500 0.1429  plane waves:     813
 k-point  37 :   0.3333 0.2500 0.1429  plane waves:     817
 k-point  38 :   0.3333 0.3333 0.1429  plane waves:     810
 k-point  39 :   0.0000 0.0000 0.2857  plane waves:     821
 k-point  40 :   0.0833-0.0000 0.2857  plane waves:     811
 k-point  41 :   0.1667-0.0000 0.2857  plane waves:     811
 k-point  42 :   0.2500 0.0000 0.2857  plane waves:     814
 k-point  43 :   0.3333 0.0000 0.2857  plane waves:     815
 k-point  44 :   0.4167-0.0000 0.2857  plane waves:     814
 k-point  45 :   0.5000 0.0000 0.2857  plane waves:     810
 k-point  46 :   0.0833 0.0833 0.2857  plane waves:     805
 k-point  47 :   0.1667 0.0833 0.2857  plane waves:     809
 k-point  48 :   0.2500 0.0833 0.2857  plane waves:     814
 k-point  49 :   0.3333 0.0833 0.2857  plane waves:     819
 k-point  50 :   0.4167 0.0833 0.2857  plane waves:     818
 k-point  51 :   0.1667 0.1667 0.2857  plane waves:     807
 k-point  52 :   0.2500 0.1667 0.2857  plane waves:     815
 k-point  53 :   0.3333 0.1667 0.2857  plane waves:     819
 k-point  54 :   0.4167 0.1667 0.2857  plane waves:     816
 k-point  55 :   0.2500 0.2500 0.2857  plane waves:     816
 k-point  56 :   0.3333 0.2500 0.2857  plane waves:     815
 k-point  57 :   0.3333 0.3333 0.2857  plane waves:     807
 k-point  58 :   0.0000 0.0000 0.4286  plane waves:     814
 k-point  59 :   0.0833-0.0000 0.4286  plane waves:     809
 k-point  60 :   0.1667-0.0000 0.4286  plane waves:     807
 k-point  61 :   0.2500 0.0000 0.4286  plane waves:     808
 k-point  62 :   0.3333 0.0000 0.4286  plane waves:     814
 k-point  63 :   0.4167-0.0000 0.4286  plane waves:     816
 k-point  64 :   0.5000 0.0000 0.4286  plane waves:     808
 k-point  65 :   0.0833 0.0833 0.4286  plane waves:     806
 k-point  66 :   0.1667 0.0833 0.4286  plane waves:     816
 k-point  67 :   0.2500 0.0833 0.4286  plane waves:     812
 k-point  68 :   0.3333 0.0833 0.4286  plane waves:     817
 k-point  69 :   0.4167 0.0833 0.4286  plane waves:     815
 k-point  70 :   0.1667 0.1667 0.4286  plane waves:     821
 k-point  71 :   0.2500 0.1667 0.4286  plane waves:     817
 k-point  72 :   0.3333 0.1667 0.4286  plane waves:     811
 k-point  73 :   0.4167 0.1667 0.4286  plane waves:     804
 k-point  74 :   0.2500 0.2500 0.4286  plane waves:     816
 k-point  75 :   0.3333 0.2500 0.4286  plane waves:     807
 k-point  76 :   0.3333 0.3333 0.4286  plane waves:     804

 maximum and minimum number of plane-waves per node :       834      785

 maximum number of plane-waves:       834
 maximum index in each direction: 
   IXMAX=    5   IYMAX=    5   IZMAX=    8
   IXMIN=   -5   IYMIN=   -5   IZMIN=   -8


 serial   3D FFT for wavefunctions
 parallel 3D FFT for charge:
    minimum data exchange during FFTs selected (reduces bandwidth)


 total amount of memory used by VASP MPI-rank0    38659. kBytes
=======================================================================

   base      :      30000. kBytes
   nonl-proj :       6666. kBytes
   fftplans  :        274. kBytes
   grid      :        643. kBytes
   one-center:         16. kBytes
   wavefun   :       1060. kBytes
 
     INWAV:  cpu time      0.0000: real time      0.0001
 Broyden mixing: mesh for mixing (old mesh)
   NGX = 11   NGY = 11   NGZ = 17
  (NGX  = 32   NGY  = 32   NGZ  = 56)
  gives a total of   2057 points

 initial charge density was supplied:
 charge density of overlapping atoms calculated
 number of electron       4.0000000 magnetization 
 keeping initial charge density in first step


--------------------------------------------------------------------------------------------------------


 Maximum index for augmentation-charges          817 (set IRDMAX)


--------------------------------------------------------------------------------------------------------


 First call to EWALD:  gamma=   0.499
 Maximum number of real-space cells 3x 3x 2
 Maximum number of reciprocal cells 3x 3x 4

    FEWALD:  cpu time      0.0014: real time      0.0014


--------------------------------------- Iteration      1(   1)  ---------------------------------------


    POTLOK:  cpu time      0.0034: real time      0.0064
    SETDIJ:  cpu time      0.1045: real time      0.1049
     EDDAV:  cpu time      0.0193: real time      0.0214
       DOS:  cpu time      0.0005: real time      0.0005
    --------------------------------------------
      LOOP:  cpu time      0.1278: real time      0.1331

 eigenvalue-minimisations  :  1216
 total energy-change (2. order) :-0.9846739E+00  (-0.1176096E+03)
 number of electron       4.0000000 magnetization 
 augmentation part        4.0000000 magnetization 

 Free energy of the ion-electron system (eV)
  ---------------------------------------------------
  alpha Z        PSCENC =         4.01845705
  Ewald energy   TEWEN  =       -59.01388070
  -Hartree energ DENC   =        -0.05633182
  -exchange      EXHF   =         0.00000000
  -V(xc)+E(xc)   XCENC  =       -97.82940657
  PAW double counting   =       130.61339054      -26.88791747
  entropy T*S    EENTRO =        -0.00345582
  eigenvalues    EBANDS =         2.10092396
  atomic energy  EATOM  =        46.07354693
  Solvation  Ediel_sol  =         0.00000000
  ---------------------------------------------------
  free energy    TOTEN  =        -0.98467392 eV

  energy without entropy =       -0.98121810  energy(sigma->0) =       -0.98294601


--------------------------------------------------------------------------------------------------------




--------------------------------------- Iteration      1(   2)  ---------------------------------------


     EDDAV:  cpu time      0.0273: real time      0.0281
       DOS:  cpu time      0.0003: real time      0.0003
    --------------------------------------------
      LOOP:  cpu time      0.0276: real time      0.0284

 eigenvalue-minimisations  :  1720
 total energy-change (2. order) :-0.2031853E+01  (-0.1970565E+01)
 number of electron       4.0000000 magnetization 
 augmentation part        4.0000000 magnetization 

 Free energy of the ion-electron system (eV)
  ---------------------------------------------------
  alpha Z        PSCENC =         4.01845705
  Ewald energy   TEWEN  =       -59.01388070
  -Hartree energ DENC   =        -0.05633182
  -exchange      EXHF   =         0.00000000
  -V(xc)+E(xc)   XCENC  =       -97.82940657
  PAW double counting   =       130.61339054      -26.88791747
  entropy T*S    EENTRO =        -0.00450804
  eigenvalues    EBANDS =         0.07012325
  atomic energy  EATOM  =        46.07354693
  Solvation  Ediel_sol  =         0.00000000
  ---------------------------------------------------
  free energy    TOTEN  =        -3.01652685 eV

  energy without entropy =       -3.01201881  energy(sigma->0) =       -3.01427283


--------------------------------------------------------------------------------------------------------




--------------------------------------- Iteration      1(   3)  ---------------------------------------


     EDDAV:  cpu time      0.0265: real time      0.0268
       DOS:  cpu time      0.0003: real time      0.0003
    --------------------------------------------
      LOOP:  cpu time      0.0268: real time      0.0272

 eigenvalue-minimisations  :  1624
 total energy-change (2. order) :-0.1006489E-01  (-0.1006348E-01)
 number of electron       4.0000000 magnetization 
 augmentation part        4.0000000 magnetization 

 Free energy of the ion-electron system (eV)
  ---------------------------------------------------
  alpha Z        PSCENC =         4.01845705
  Ewald energy   TEWEN  =       -59.01388070
  -Hartree energ DENC   =        -0.05633182
  -exchange      EXHF   =         0.00000000
  -V(xc)+E(xc)   XCENC  =       -97.82940657
  PAW double counting   =       130.61339054      -26.88791747
  entropy T*S    EENTRO =        -0.00450655
  eigenvalues    EBANDS =         0.06005687
  atomic energy  EATOM  =        46.07354693
  Solvation  Ediel_sol  =         0.00000000
  ---------------------------------------------------
  free energy    TOTEN  =        -3.02659174 eV

  energy without entropy =       -3.02208519  energy(sigma->0) =       -3.02433846


--------------------------------------------------------------------------------------------------------




--------------------------------------- Iteration      1(   4)  ---------------------------------------


     EDDAV:  cpu time      0.0286: real time      0.0289
       DOS:  cpu time      0.0003: real time      0.0003
    --------------------------------------------
      LOOP:  cpu time      0.0289: real time      0.0292

 eigenvalue-minimisations  :  1800
 total energy-change (2. order) :-0.2672444E-04  (-0.2672442E-04)
 number of electron       4.0000000 magnetization 
 augmentation part        4.0000000 magnetization 

 Free energy of the ion-electron system (eV)
  ---------------------------------------------------
  alpha Z        PSCENC =         4.01845705
  Ewald energy   TEWEN  =       -59.01388070
  -Hartree energ DENC   =        -0.05633182
  -exchange      EXHF   =         0.00000000
  -V(xc)+E(xc)   XCENC  =       -97.82940657
  PAW double counting   =       130.61339054      -26.88791747
  entropy T*S    EENTRO =        -0.00450654
  eigenvalues    EBANDS =         0.06003013
  atomic energy  EATOM  =        46.07354693
  Solvation  Ediel_sol  =         0.00000000
  ---------------------------------------------------
  free energy    TOTEN  =        -3.02661846 eV

  energy without entropy =       -3.02211192  energy(sigma->0) =       -3.02436519


--------------------------------------------------------------------------------------------------------




--------------------------------------- Iteration      1(   5)  ---------------------------------------


     EDDAV:  cpu time      0.0265: real time      0.0268
       DOS:  cpu time      0.0003: real time      0.0003
    CHARGE:  cpu time      0.0024: real time      0.0024
    MIXING:  cpu time      0.0006: real time      0.0006
    --------------------------------------------
      LOOP:  cpu time      0.0298: real time      0.0301

 eigenvalue-minimisations  :  1592
 total energy-change (2. order) :-0.6588593E-07  (-0.6580226E-07)
 number of electron       4.0000000 magnetization 
 augmentation part        0.0134789 magnetization 

 Broyden mixing:
  rms(total) = 0.96201E-01    rms(broyden)= 0.96201E-01
  rms(prec ) = 0.19956E+00
  weight for this iteration     100.00

 Free energy of the ion-electron system (eV)
  ---------------------------------------------------
  alpha Z        PSCENC =         4.01845705
  Ewald energy   TEWEN  =       -59.01388070
  -Hartree energ DENC   =        -0.05633182
  -exchange      EXHF   =         0.00000000
  -V(xc)+E(xc)   XCENC  =       -97.82940657
  PAW double counting   =       130.61339054      -26.88791747
  entropy T*S    EENTRO =        -0.00450654
  eigenvalues    EBANDS =         0.06003007
  atomic energy  EATOM  =        46.07354693
  Solvation  Ediel_sol  =         0.00000000
  ---------------------------------------------------
  free energy    TOTEN  =        -3.02661853 eV

  energy without entropy =       -3.02211199  energy(sigma->0) =       -3.02436526


--------------------------------------------------------------------------------------------------------




--------------------------------------- Iteration      1(   6)  ---------------------------------------


    POTLOK:  cpu time      0.0027: real time      0.0029
    SETDIJ:  cpu time      0.1004: real time      0.1007
     EDDAV:  cpu time      0.0225: real time      0.0226
       DOS:  cpu time      0.0003: real time      0.0003
    CHARGE:  cpu time      0.0023: real time      0.0024
    MIXING:  cpu time      0.0003: real time      0.0003
    --------------------------------------------
      LOOP:  cpu time      0.1286: real time      0.1292

 eigenvalue-minimisations  :  1488
 total energy-change (2. order) : 0.6208537E-02  (-0.5360278E-04)
 number of electron       4.0000000 magnetization 
 augmentation part        0.0133559 magnetization 

 Broyden mixing:
  rms(total) = 0.61579E-01    rms(broyden)= 0.61579E-01
  rms(prec ) = 0.12905E+00
  weight for this iteration     100.00

 eigenvalues of (default mixing * dielectric matrix)
  average eigenvalue GAMMA=   2.7614
  2.7614

 Free energy of the ion-electron system (eV)
  ---------------------------------------------------
  alpha Z        PSCENC =         4.01845705
  Ewald energy   TEWEN  =       -59.01388070
  -Hartree energ DENC   =        -0.05857281
  -exchange      EXHF   =         0.00000000
  -V(xc)+E(xc)   XCENC  =       -97.75437052
  PAW double counting   =       125.50239343      -21.78159483
  entropy T*S    EENTRO =        -0.00449770
  eigenvalues    EBANDS =        -0.00189084
  atomic energy  EATOM  =        46.07354693
  Solvation  Ediel_sol  =         0.00000000
  ---------------------------------------------------
  free energy    TOTEN  =        -3.02040999 eV

  energy without entropy =       -3.01591229  energy(sigma->0) =       -3.01816114


--------------------------------------------------------------------------------------------------------




--------------------------------------- Iteration      1(   7)  ---------------------------------------


    POTLOK:  cpu time      0.0027: real time      0.0028
    SETDIJ:  cpu time      0.1001: real time      0.1004
     EDDAV:  cpu time      0.0198: real time      0.0199
       DOS:  cpu time      0.0003: real time      0.0003
    CHARGE:  cpu time      0.0022: real time      0.0022
    MIXING:  cpu time      0.0004: real time      0.0003
    --------------------------------------------
      LOOP:  cpu time      0.1255: real time      0.1261

 eigenvalue-minimisations  :  1256
 total energy-change (2. order) : 0.7480121E-02  (-0.2088986E-03)
 number of electron       4.0000000 magnetization 
 augmentation part        0.0130931 magnetization 

 Broyden mixing:
  rms(total) = 0.33657E-02    rms(broyden)= 0.33657E-02
  rms(prec ) = 0.44298E-02
  weight for this iteration     100.00

 eigenvalues of (default mixing * dielectric matrix)
  average eigenvalue GAMMA=   2.5758
  2.5758  2.5758

 Free energy of the ion-electron system (eV)
  ---------------------------------------------------
  alpha Z        PSCENC =         4.01845705
  Ewald energy   TEWEN  =       -59.01388070
  -Hartree energ DENC   =        -0.12555612
  -exchange      EXHF   =         0.00000000
  -V(xc)+E(xc)   XCENC  =       -97.58959282
  PAW double counting   =       118.07898876      -14.36703530
  entropy T*S    EENTRO =        -0.00450208
  eigenvalues    EBANDS =        -0.08335559
  atomic energy  EATOM  =        46.07354693
  Solvation  Ediel_sol  =         0.00000000
  ---------------------------------------------------
  free energy    TOTEN  =        -3.01292987 eV

  energy without entropy =       -3.00842779  energy(sigma->0) =       -3.01067883


--------------------------------------------------------------------------------------------------------




--------------------------------------- Iteration      1(   8)  ---------------------------------------


    POTLOK:  cpu time      0.0027: real time      0.0029
    SETDIJ:  cpu time      0.1007: real time      0.1009
     EDDAV:  cpu time      0.0339: real time      0.0341
       DOS:  cpu time      0.0003: real time      0.0004
    CHARGE:  cpu time      0.0024: real time      0.0024
    MIXING:  cpu time      0.0004: real time      0.0004
    --------------------------------------------
      LOOP:  cpu time      0.1404: real time      0.1411

 eigenvalue-minimisations  :  1960
 total energy-change (2. order) :-0.1136899E-04  (-0.1440714E-05)
 number of electron       4.0000000 magnetization 
 augmentation part        0.0131011 magnetization 

 Broyden mixing:
  rms(total) = 0.74531E-03    rms(broyden)= 0.74531E-03
  rms(prec ) = 0.15156E-02
  weight for this iteration     100.00

 eigenvalues of (default mixing * dielectric matrix)
  average eigenvalue GAMMA=   2.1443
  1.0223  2.6233  2.7874

 Free energy of the ion-electron system (eV)
  ---------------------------------------------------
  alpha Z        PSCENC =         4.01845705
  Ewald energy   TEWEN  =       -59.01388070
  -Hartree energ DENC   =        -0.12550181
  -exchange      EXHF   =         0.00000000
  -V(xc)+E(xc)   XCENC  =       -97.59071817
  PAW double counting   =       118.75326997      -15.04110670
  entropy T*S    EENTRO =        -0.00450365
  eigenvalues    EBANDS =        -0.08250414
  atomic energy  EATOM  =        46.07354693
  Solvation  Ediel_sol  =         0.00000000
  ---------------------------------------------------
  free energy    TOTEN  =        -3.01294124 eV

  energy without entropy =       -3.00843759  energy(sigma->0) =       -3.01068941


--------------------------------------------------------------------------------------------------------




--------------------------------------- Iteration      1(   9)  ---------------------------------------


    POTLOK:  cpu time      0.0028: real time      0.0030
    SETDIJ:  cpu time      0.1002: real time      0.1004
     EDDAV:  cpu time      0.0208: real time      0.0209
       DOS:  cpu time      0.0003: real time      0.0003
    CHARGE:  cpu time      0.0023: real time      0.0023
    MIXING:  cpu time      0.0003: real time      0.0004
    --------------------------------------------
      LOOP:  cpu time      0.1268: real time      0.1274

 eigenvalue-minimisations  :  1368
 total energy-change (2. order) : 0.1218515E-05  (-0.1194994E-06)
 number of electron       4.0000000 magnetization 
 augmentation part        0.0130949 magnetization 

 Broyden mixing:
  rms(total) = 0.62910E-04    rms(broyden)= 0.62910E-04
  rms(prec ) = 0.73691E-04
  weight for this iteration     100.00

 eigenvalues of (default mixing * dielectric matrix)
  average eigenvalue GAMMA=   2.1595
  0.9876  2.8420  2.4043  2.4043

 Free energy of the ion-electron system (eV)
  ---------------------------------------------------
  alpha Z        PSCENC =         4.01845705
  Ewald energy   TEWEN  =       -59.01388070
  -Hartree energ DENC   =        -0.12695790
  -exchange      EXHF   =         0.00000000
  -V(xc)+E(xc)   XCENC  =       -97.58854403
  PAW double counting   =       118.87292114      -15.16085014
  entropy T*S    EENTRO =        -0.00450435
  eigenvalues    EBANDS =        -0.08312802
  atomic energy  EATOM  =        46.07354693
  Solvation  Ediel_sol  =         0.00000000
  ---------------------------------------------------
  free energy    TOTEN  =        -3.01294002 eV

  energy without entropy =       -3.00843567  energy(sigma->0) =       -3.01068785


--------------------------------------------------------------------------------------------------------




--------------------------------------- Iteration      1(  10)  ---------------------------------------


    POTLOK:  cpu time      0.0027: real time      0.0029
    SETDIJ:  cpu time      0.1002: real time      0.1004
     EDDAV:  cpu time      0.0224: real time      0.0225
       DOS:  cpu time      0.0003: real time      0.0003
    CHARGE:  cpu time      0.0023: real time      0.0023
    MIXING:  cpu time      0.0004: real time      0.0004
    --------------------------------------------
      LOOP:  cpu time      0.1282: real time      0.1288

 eigenvalue-minimisations  :  1280
 total energy-change (2. order) : 0.2100781E-06  (-0.4727235E-09)
 number of electron       4.0000000 magnetization 
 augmentation part        0.0130956 magnetization 

 Broyden mixing:
  rms(total) = 0.12832E-04    rms(broyden)= 0.12832E-04
  rms(prec ) = 0.20308E-04
  weight for this iteration     100.00

 eigenvalues of (default mixing * dielectric matrix)
  average eigenvalue GAMMA=   1.9875
  2.7308  2.7308  2.5274  1.0039  0.9445

 Free energy of the ion-electron system (eV)
  ---------------------------------------------------
  alpha Z        PSCENC =         4.01845705
  Ewald energy   TEWEN  =       -59.01388070
  -Hartree energ DENC   =        -0.12696623
  -exchange      EXHF   =         0.00000000
  -V(xc)+E(xc)   XCENC  =       -97.58849849
  PAW double counting   =       118.85994662      -15.14791466
  entropy T*S    EENTRO =        -0.00450438
  eigenvalues    EBANDS =        -0.08312596
  atomic energy  EATOM  =        46.07354693
  Solvation  Ediel_sol  =         0.00000000
  ---------------------------------------------------
  free energy    TOTEN  =        -3.01293981 eV

  energy without entropy =       -3.00843544  energy(sigma->0) =       -3.01068762


--------------------------------------------------------------------------------------------------------




--------------------------------------- Iteration      1(  11)  ---------------------------------------


    POTLOK:  cpu time      0.0027: real time      0.0029
    SETDIJ:  cpu time      0.1001: real time      0.1004
     EDDAV:  cpu time      0.0152: real time      0.0153
       DOS:  cpu time      0.0003: real time      0.0003
    --------------------------------------------
      LOOP:  cpu time      0.1183: real time      0.1188

 eigenvalue-minimisations  :   824
 total energy-change (2. order) : 0.1541608E-07  (-0.4603851E-10)
 number of electron       4.0000000 magnetization 
 augmentation part        0.0130956 magnetization 

 Free energy of the ion-electron system (eV)
  ---------------------------------------------------
  alpha Z        PSCENC =         4.01845705
  Ewald energy   TEWEN  =       -59.01388070
  -Hartree energ DENC   =        -0.12697395
  -exchange      EXHF   =         0.00000000
  -V(xc)+E(xc)   XCENC  =       -97.58848032
  PAW double counting   =       118.85938539      -15.14736401
  entropy T*S    EENTRO =        -0.00450439
  eigenvalues    EBANDS =        -0.08312580
  atomic energy  EATOM  =        46.07354693
  Solvation  Ediel_sol  =         0.00000000
  ---------------------------------------------------
  free energy    TOTEN  =        -3.01293980 eV

  energy without entropy =       -3.00843540  energy(sigma->0) =       -3.01068760


--------------------------------------------------------------------------------------------------------




 average (electrostatic) potential at core
  the test charge radii are     1.0714
  (the norm of the test charge is              1.0000)
       1 -39.0609       2 -39.0609
 
 
 
 E-fermi :   2.6978     XC(G=0):  -8.5673     alpha+bet : -7.6334

 Fermi energy:         2.6977582383

 k-point     1 :       0.0000    0.0000    0.0000
  band No.  band energies     occupation 
      1      -4.2749      2.00000
      2       1.0476      2.00000
      3       1.5392      2.00000
      4      13.8276      0.00000
      5      13.8276      0.00000
      6      13.9881      0.00000
      7      13.9881      0.00000
      8      14.7461      0.00000

 k-point     2 :       0.0833   -0.0000    0.0000
  band No.  band energies     occupation 
      1      -4.1361      2.00000
      2       1.1741      2.00000
      3       1.6737      2.00000
      4      11.5411      0.00000
      5      12.6378      0.00000
      6      13.4439      0.00000
      7      15.3593      0.00000
      8      15.6498      0.00000

 k-point     3 :       0.1667   -0.0000    0.0000
  band No.  band energies     occupation 
      1      -3.7209      2.00000
      2       1.5538      2.00000
      3       2.0719      2.00000
      4       8.9854      0.00000
      5      11.5976      0.00000
      6      12.1948      0.00000
      7      13.7641      0.00000
      8      14.7693      0.00000

 k-point     4 :       0.2500    0.0000    0.0000
  band No.  band energies     occupation 
      1      -3.0330      2.00000
      2       2.1874      2.00000
      3       2.7077      0.88799
      4       6.6244      0.00000
      5      10.7891      0.00000
      6      10.8629      0.00000
      7      11.3768      0.00000
      8      13.1917      0.00000

 k-point     5 :       0.3333    0.0000    0.0000
  band No.  band energies     occupation 
      1      -2.0785      2.00000
      2       3.0755      0.00000
      3       3.3591      0.00000
      4       4.7109      0.00000
      5       9.2135      0.00000
      6       9.3874      0.00000
      7      10.2127      0.00000
      8      12.0459      0.00000

 k-point     6 :       0.4167   -0.0000    0.0000
  band No.  band energies     occupation 
      1      -0.8663      2.00000
      2       2.2395      2.00000
      3       4.2173      0.00000
      4       5.0232      0.00000
      5       7.3009      0.00000
      6       7.8325      0.00000
      7       9.8676      0.00000
      8      11.4159      0.00000

 k-point     7 :       0.5000    0.0000    0.0000
  band No.  band energies     occupation 
      1       0.5738      2.00000
      2       0.6040      2.00000
      3       5.4633      0.00000
      4       5.7971      0.00000
      5       6.1261      0.00000
      6       6.5272      0.00000
      7       9.7526      0.00000
      8      11.2177      0.00000

 k-point     8 :       0.0833    0.0833    0.0000
  band No.  band energies     occupation 
      1      -3.8591      2.00000
      2       1.4272      2.00000
      3       1.9402      2.00000
      4      10.1759      0.00000
      5      10.5082      0.00000
      6      14.4750      0.00000
      7      14.5646      0.00000
      8      14.8188      0.00000

 k-point     9 :       0.1667    0.0833    0.0000
  band No.  band energies     occupation 
      1      -3.3076      2.00000
      2       1.9338      2.00000
      3       2.4600      1.99923
      4       7.8486      0.00000
      5       9.3553      0.00000
      6      12.6036      0.00000
      7      12.9420      0.00000
      8      14.2580      0.00000

 k-point    10 :       0.2500    0.0833    0.0000
  band No.  band energies     occupation 
      1      -2.4863      2.00000
      2       2.6948      1.03392
      3       3.1711      0.00000
      4       5.6486      0.00000
      5       8.5309      0.00000
      6      10.3520      0.00000
      7      11.1795      0.00000
      8      13.4472      0.00000

 k-point    11 :       0.3333    0.0833    0.0000
  band No.  band energies     occupation 
      1      -1.4028      2.00000
      2       3.1299      0.00000
      3       3.7102      0.00000
      4       4.6472      0.00000
      5       7.8179      0.00000
      6       8.3183      0.00000
      7       9.6033      0.00000
      8      12.9174      0.00000

 k-point    12 :       0.4167    0.0833    0.0000
  band No.  band energies     occupation 
      1      -0.0684      2.00000
      2       1.4944      2.00000
      3       4.9730      0.00000
      4       5.6536      0.00000
      5       6.5424      0.00000
      6       6.8785      0.00000
      7       8.6979      0.00000
      8      12.6536      0.00000

 k-point    13 :       0.1667    0.1667    0.0000
  band No.  band energies     occupation 
      1      -2.6227      2.00000
      2       2.5679      1.93377
      3       3.0738      0.00000
      4       6.7568      0.00000
      5       7.2326      0.00000
      6      11.4533      0.00000
      7      12.1377      0.00000
      8      12.2073      0.00000

 k-point    14 :       0.2500    0.1667    0.0000
  band No.  band energies     occupation 
      1      -1.6724      2.00000
      2       3.4564      0.00000
      3       3.6997      0.00000
      4       4.9946      0.00000
      5       6.4509      0.00000
      6       9.5608      0.00000
      7      10.5596      0.00000
      8      11.2180      0.00000

 k-point    15 :       0.3333    0.1667    0.0000
  band No.  band energies     occupation 
      1      -0.4659      2.00000
      2       2.6222      1.71479
      3       4.5979      0.00000
      4       5.0192      0.00000
      5       6.2217      0.00000
      6       7.6764      0.00000
      7       8.9309      0.00000
      8      10.7994      0.00000

 k-point    16 :       0.4167    0.1667    0.0000
  band No.  band energies     occupation 
      1       0.9622      2.00000
      2       1.0014      2.00000
      3       5.3074      0.00000
      4       5.8351      0.00000
      5       6.1862      0.00000
      6       6.4717      0.00000
      7       8.0093      0.00000
      8      10.6643      0.00000

 k-point    17 :       0.2500    0.2500    0.0000
  band No.  band energies     occupation 
      1      -0.5990      2.00000
      2       3.7631      0.00000
      3       4.0611      0.00000
      4       4.4717      0.00000
      5       5.7792      0.00000
      6       8.8239      0.00000
      7       9.4017      0.00000
      8       9.7889      0.00000

 k-point    18 :       0.3333    0.2500    0.0000
  band No.  band energies     occupation 
      1       0.7220      2.00000
      2       2.2673      2.00000
      3       3.7512      0.00000
      4       5.7299      0.00000
      5       6.6056      0.00000
      6       7.2856      0.00000
      7       8.5932      0.00000
      8       8.9085      0.00000

 k-point    19 :       0.3333    0.3333    0.0000
  band No.  band energies     occupation 
      1       2.1078      2.00000
      2       2.1627      2.00000
      3       2.1627      2.00000
      4       6.9530      0.00000
      5       6.9530      0.00000
      6       7.1672      0.00000
      7       7.6326      0.00000
      8       8.9009      0.00000

 k-point    20 :       0.0000    0.0000    0.1429
  band No.  band energies     occupation 
      1      -4.1584      2.00000
      2      -0.1744      2.00000
      3       2.9621      0.00018
      4      13.6095      0.00000
      5      13.9180      0.00000
      6      13.9180      0.00000
      7      14.0637      0.00000
      8      14.0637      0.00000

 k-point    21 :       0.0833   -0.0000    0.1429
  band No.  band energies     occupation 
      1      -4.0198      2.00000
      2      -0.0422      2.00000
      3       3.0901      0.00000
      4      11.6214      0.00000
      5      12.7321      0.00000
      6      13.3500      0.00000
      7      14.1267      0.00000
      8      15.3108      0.00000

 k-point    22 :       0.1667   -0.0000    0.1429
  band No.  band energies     occupation 
      1      -3.6051      2.00000
      2       0.3532      2.00000
      3       3.4690      0.00000
      4       9.0859      0.00000
      5      11.6941      0.00000
      6      12.0159      0.00000
      7      13.0906      0.00000
      8      14.7573      0.00000

 k-point    23 :       0.2500    0.0000    0.1429
  band No.  band energies     occupation 
      1      -2.9180      2.00000
      2       1.0063      2.00000
      3       4.0676      0.00000
      4       6.7450      0.00000
      5      10.0913      0.00000
      6      10.8860      0.00000
      7      11.7325      0.00000
      8      13.7624      0.00000

 k-point    24 :       0.3333    0.0000    0.1429
  band No.  band energies     occupation 
      1      -1.9647      2.00000
      2       1.8974      2.00000
      3       4.2134      0.00000
      4       5.3289      0.00000
      5       8.0829      0.00000
      6      10.3096      0.00000
      7      10.4511      0.00000
      8      12.3738      0.00000

 k-point    25 :       0.4167   -0.0000    0.1429
  band No.  band energies     occupation 
      1      -0.7543      2.00000
      2       2.2787      2.00000
      3       3.2588      0.00000
      4       6.0329      0.00000
      5       6.4291      0.00000
      6       9.0103      0.00000
      7       9.9643      0.00000
      8      11.6075      0.00000

 k-point    26 :       0.5000    0.0000    0.1429
  band No.  band energies     occupation 
      1       0.6798      2.00000
      2       0.7135      2.00000
      3       4.5579      0.00000
      4       4.5595      0.00000
      5       7.5617      0.00000
      6       7.5656      0.00000
      7       9.8493      0.00000
      8      11.3791      0.00000

 k-point    27 :       0.0833    0.0833    0.1429
  band No.  band energies     occupation 
      1      -3.7431      2.00000
      2       0.2217      2.00000
      3       3.3437      0.00000
      4      10.2652      0.00000
      5      10.6005      0.00000
      6      13.7006      0.00000
      7      13.9035      0.00000
      8      14.2168      0.00000

 k-point    28 :       0.1667    0.0833    0.1429
  band No.  band energies     occupation 
      1      -3.1922      2.00000
      2       0.7461      2.00000
      3       3.8380      0.00000
      4       7.9535      0.00000
      5       9.4342      0.00000
      6      11.6153      0.00000
      7      12.9787      0.00000
      8      13.8871      0.00000

 k-point    29 :       0.2500    0.0833    0.1429
  band No.  band energies     occupation 
      1      -2.3720      2.00000
      2       1.5218      2.00000
      3       4.4618      0.00000
      4       5.8236      0.00000
      5       8.5004      0.00000
      6       9.5871      0.00000
      7      11.9642      0.00000
      8      12.6737      0.00000

 k-point    30 :       0.3333    0.0833    0.1429
  band No.  band energies     occupation 
      1      -1.2900      2.00000
      2       2.4705      1.99869
      3       3.5481      0.00000
      4       5.7398      0.00000
      5       7.1138      0.00000
      6       8.4368      0.00000
      7      10.4446      0.00000
      8      12.0095      0.00000

 k-point    31 :       0.4167    0.0833    0.1429
  band No.  band energies     occupation 
      1       0.0420      2.00000
      2       1.5933      2.00000
      3       3.9352      0.00000
      4       5.4143      0.00000
      5       6.8240      0.00000
      6       7.8832      0.00000
      7       9.1632      0.00000
      8      11.7342      0.00000

 k-point    32 :       0.1667    0.1667    0.1429
  band No.  band energies     occupation 
      1      -2.5082      2.00000
      2       1.3945      2.00000
      3       4.4132      0.00000
      4       6.8563      0.00000
      5       7.3505      0.00000
      6      10.7093      0.00000
      7      10.8539      0.00000
      8      13.6993      0.00000

 k-point    33 :       0.2500    0.1667    0.1429
  band No.  band energies     occupation 
      1      -1.5592      2.00000
      2       2.2761      2.00000
      3       4.5879      0.00000
      4       5.4780      0.00000
      5       6.6103      0.00000
      6       8.7304      0.00000
      7      10.1383      0.00000
      8      11.8505      0.00000

 k-point    34 :       0.3333    0.1667    0.1429
  band No.  band energies     occupation 
      1      -0.3546      2.00000
      2       2.6565      1.44082
      3       3.6229      0.00000
      4       5.6668      0.00000
      5       6.3929      0.00000
      6       7.3775      0.00000
      7       9.5887      0.00000
      8      10.2761      0.00000

 k-point    35 :       0.4167    0.1667    0.1429
  band No.  band energies     occupation 
      1       1.0679      2.00000
      2       1.1093      2.00000
      3       4.7404      0.00000
      4       4.9431      0.00000
      5       5.9274      0.00000
      6       7.8467      0.00000
      7       8.7827      0.00000
      8       9.8428      0.00000

 k-point    36 :       0.2500    0.2500    0.1429
  band No.  band energies     occupation 
      1      -0.4874      2.00000
      2       3.1576      0.00000
      3       4.1633      0.00000
      4       4.4218      0.00000
      5       6.6137      0.00000
      6       8.1186      0.00000
      7       8.3620      0.00000
      8      11.1668      0.00000

 k-point    37 :       0.3333    0.2500    0.1429
  band No.  band energies     occupation 
      1       0.8307      2.00000
      2       2.3623      2.00000
      3       3.7814      0.00000
      4       4.8810      0.00000
      5       6.2660      0.00000
      6       7.5229      0.00000
      7       8.4223      0.00000
      8       9.7010      0.00000

 k-point    38 :       0.3333    0.3333    0.1429
  band No.  band energies     occupation 
      1       2.2152      2.00000
      2       2.2606      2.00000
      3       2.2606      2.00000
      4       5.9751      0.00000
      5       6.2511      0.00000
      6       6.2511      0.00000
      7       9.0435      0.00000
      8       9.8074      0.00000

 k-point    39 :       0.0000    0.0000    0.2857
  band No.  band energies     occupation 
      1      -3.8097      2.00000
      2      -1.4053      2.00000
      3       4.7954      0.00000
      4      11.3410      0.00000
      5      14.1739      0.00000
      6      14.1739      0.00000
      7      14.2764      0.00000
      8      14.2764      0.00000

 k-point    40 :       0.0833   -0.0000    0.2857
  band No.  band energies     occupation 
      1      -3.6716      2.00000
      2      -1.2708      2.00000
      3       4.9183      0.00000
      4      11.3146      0.00000
      5      12.1013      0.00000
      6      13.0143      0.00000
      7      13.4837      0.00000
      8      14.8460      0.00000

 k-point    41 :       0.1667   -0.0000    0.2857
  band No.  band energies     occupation 
      1      -3.2584      2.00000
      2      -0.8687      2.00000
      3       5.2775      0.00000
      4       9.3764      0.00000
      5      11.2648      0.00000
      6      11.7824      0.00000
      7      11.9839      0.00000
      8      13.8001      0.00000

 k-point    42 :       0.2500    0.0000    0.2857
  band No.  band energies     occupation 
      1      -2.5739      2.00000
      2      -0.2032      2.00000
      3       5.7678      0.00000
      4       7.1426      0.00000
      5       9.0709      0.00000
      6      11.1771      0.00000
      7      11.7392      0.00000
      8      13.2058      0.00000

 k-point    43 :       0.3333    0.0000    0.2857
  band No.  band energies     occupation 
      1      -1.6243      2.00000
      2       0.7150      2.00000
      3       4.6870      0.00000
      4       6.7288      0.00000
      5       7.1742      0.00000
      6      10.6005      0.00000
      7      11.2030      0.00000
      8      12.6442      0.00000

 k-point    44 :       0.4167   -0.0000    0.2857
  band No.  band energies     occupation 
      1      -0.4196      2.00000
      2       1.8045      2.00000
      3       2.8932      0.00572
      4       5.0520      0.00000
      5       7.9705      0.00000
      6      10.2548      0.00000
      7      10.3409      0.00000
      8      12.2270      0.00000

 k-point    45 :       0.5000    0.0000    0.2857
  band No.  band energies     occupation 
      1       0.9929      2.00000
      2       1.0351      2.00000
      3       3.3896      0.00000
      4       3.4437      0.00000
      5       9.0395      0.00000
      6       9.2985      0.00000
      7      10.1395      0.00000
      8      11.8770      0.00000

 k-point    46 :       0.0833    0.0833    0.2857
  band No.  band energies     occupation 
      1      -3.3960      2.00000
      2      -1.0025      2.00000
      3       5.1601      0.00000
      4      10.4804      0.00000
      5      10.8620      0.00000
      6      11.7033      0.00000
      7      12.9656      0.00000
      8      13.2217      0.00000

 k-point    47 :       0.1667    0.0833    0.2857
  band No.  band energies     occupation 
      1      -2.8471      2.00000
      2      -0.4686      2.00000
      3       5.6147      0.00000
      4       8.2657      0.00000
      5       9.5879      0.00000
      6      10.6086      0.00000
      7      11.8013      0.00000
      8      12.7660      0.00000

 k-point    48 :       0.2500    0.0833    0.2857
  band No.  band energies     occupation 
      1      -2.0300      2.00000
      2       0.3241      2.00000
      3       5.6548      0.00000
      4       6.6823      0.00000
      5       7.9728      0.00000
      6       9.3553      0.00000
      7      11.2064      0.00000
      8      13.0342      0.00000

 k-point    49 :       0.3333    0.0833    0.2857
  band No.  band energies     occupation 
      1      -0.9525      2.00000
      2       1.3539      2.00000
      3       3.8396      0.00000
      4       6.0281      0.00000
      5       7.3749      0.00000
      6       8.8512      0.00000
      7      10.7266      0.00000
      8      12.1096      0.00000

 k-point    50 :       0.4167    0.0833    0.2857
  band No.  band energies     occupation 
      1       0.3709      2.00000
      2       1.8422      2.00000
      3       2.8547      0.02642
      4       4.2894      0.00000
      5       7.9360      0.00000
      6       9.0450      0.00000
      7      10.3061      0.00000
      8      10.9111      0.00000

 k-point    51 :       0.1667    0.1667    0.2857
  band No.  band energies     occupation 
      1      -2.1656      2.00000
      2       0.1930      2.00000
      3       6.0603      0.00000
      4       7.1472      0.00000
      5       7.7028      0.00000
      6       9.6346      0.00000
      7       9.8254      0.00000
      8      13.1970      0.00000

 k-point    52 :       0.2500    0.1667    0.2857
  band No.  band energies     occupation 
      1      -1.2204      2.00000
      2       1.1045      2.00000
      3       5.0561      0.00000
      4       6.3650      0.00000
      5       7.0653      0.00000
      6       8.1161      0.00000
      7       9.1576      0.00000
      8      13.4528      0.00000

 k-point    53 :       0.3333    0.1667    0.2857
  band No.  band energies     occupation 
      1      -0.0219      2.00000
      2       2.1797      2.00000
      3       3.2776      0.00000
      4       5.3051      0.00000
      5       6.3981      0.00000
      6       8.2614      0.00000
      7       9.1443      0.00000
      8      11.7212      0.00000

 k-point    54 :       0.4167    0.1667    0.2857
  band No.  band energies     occupation 
      1       1.3793      2.00000
      2       1.4253      2.00000
      3       3.7658      0.00000
      4       3.7782      0.00000
      5       6.2446      0.00000
      6       8.3181      0.00000
      7      10.0596      0.00000
      8      10.3368      0.00000

 k-point    55 :       0.2500    0.2500    0.2857
  band No.  band energies     occupation 
      1      -0.1537      2.00000
      2       2.1070      2.00000
      3       4.4629      0.00000
      4       4.6807      0.00000
      5       6.7488      0.00000
      6       7.0818      0.00000
      7       8.7914      0.00000
[...]
      5       9.3020      0.00000
      6      10.3431      0.00000
      7      11.5744      0.00000
      8      12.6593      0.00000

 k-point    48 :       0.2500    0.0833    0.2857
  band No.  band energies     occupation 
      1      -2.0866      2.00000
      2       0.2837      2.00000
      3       5.4920      0.00000
      4       6.6118      0.00000
      5       7.7669      0.00000
      6       9.0541      0.00000
      7      10.9385      0.00000
      8      12.8457      0.00000

 k-point    49 :       0.3333    0.0833    0.2857
  band No.  band energies     occupation 
      1      -1.0326      2.00000
      2       1.2909      2.00000
      3       3.6591      0.00000
      4       5.8659      0.00000
      5       7.3102      0.00000
      6       8.5906      0.00000
      7      10.4632      0.00000
      8      11.9183      0.00000

 k-point    50 :       0.4167    0.0833    0.2857
  band No.  band energies     occupation 
      1       0.2633      2.00000
      2       1.7158      2.00000
      3       2.7437      0.02414
      4       4.1601      0.00000
      5       7.7318      0.00000
      6       8.9280      0.00000
      7      10.1019      0.00000
      8      10.7075      0.00000

 k-point    51 :       0.1667    0.1667    0.2857
  band No.  band energies     occupation 
      1      -2.2192      2.00000
      2       0.1554      2.00000
      3       6.0270      0.00000
      4       6.9175      0.00000
      5       7.4638      0.00000
      6       9.3799      0.00000
      7       9.5760      0.00000
      8      13.1904      0.00000

 k-point    52 :       0.2500    0.1667    0.2857
  band No.  band energies     occupation 
      1      -1.2948      2.00000
      2       1.0470      2.00000
      3       4.8596      0.00000
      4       6.1758      0.00000
      5       6.9498      0.00000
      6       7.9253      0.00000
      7       8.9287      0.00000
      8      13.2973      0.00000

 k-point    53 :       0.3333    0.1667    0.2857
  band No.  band energies     occupation 
      1      -0.1217      2.00000
      2       2.0953      2.00000
      3       3.1115      0.00000
      4       5.1546      0.00000
      5       6.1770      0.00000
      6       8.0996      0.00000
      7       8.9972      0.00000
      8      11.5882      0.00000

 k-point    54 :       0.4167    0.1667    0.2857
  band No.  band energies     occupation 
      1       1.2690      2.00000
      2       1.2807      2.00000
      3       3.6313      0.00000
      4       3.6752      0.00000
      5       6.0123      0.00000
      6       8.1179      0.00000
      7       9.9754      0.00000
      8      10.2008      0.00000

 k-point    55 :       0.2500    0.2500    0.2857
  band No.  band energies     occupation 
      1      -0.2508      2.00000
      2       2.0277      2.00000
      3       4.2895      0.00000
      4       4.4734      0.00000
      5       6.5949      0.00000
      6       6.8637      0.00000
      7       8.7031      0.00000
      8      12.8067      0.00000

 k-point    56 :       0.3333    0.2500    0.2857
  band No.  band energies     occupation 
      1       1.0305      2.00000
      2       2.4528      1.93699
      3       3.3639      0.00000
      4       4.1609      0.00000
      5       5.1498      0.00000
      6       6.5033      0.00000
      7       9.7994      0.00000
      8      11.2603      0.00000

 k-point    57 :       0.3333    0.3333    0.2857
  band No.  band energies     occupation 
      1       2.3756      1.99684
      2       2.3756      1.99684
      3       2.4179      1.98139
      4       4.6947      0.00000
      5       5.0516      0.00000
      6       5.0516      0.00000
      7      10.8213      0.00000
      8      11.2979      0.00000

 k-point    58 :       0.0000    0.0000    0.4286
  band No.  band energies     occupation 
      1      -3.2442      2.00000
      2      -2.4358      2.00000
      3       6.8717      0.00000
      4       9.0785      0.00000
      5      14.1386      0.00000
      6      14.1386      0.00000
      7      14.1432      0.00000
      8      14.1432      0.00000

 k-point    59 :       0.0833   -0.0000    0.4286
  band No.  band energies     occupation 
      1      -3.1101      2.00000
      2      -2.3028      2.00000
      3       6.9833      0.00000
      4       9.1713      0.00000
      5      12.0967      0.00000
      6      12.6696      0.00000
      7      13.0936      0.00000
      8      13.7405      0.00000

 k-point    60 :       0.1667   -0.0000    0.4286
  band No.  band energies     occupation 
      1      -2.7089      2.00000
      2      -1.9051      2.00000
      3       7.2896      0.00000
      4       9.2251      0.00000
      5       9.8284      0.00000
      6      10.4099      0.00000
      7      12.0921      0.00000
      8      12.7776      0.00000

 k-point    61 :       0.2500    0.0000    0.4286
  band No.  band energies     occupation 
      1      -2.0440      2.00000
      2      -1.2463      2.00000
      3       7.0116      0.00000
      4       7.7490      0.00000
      5       8.3205      0.00000
      6      10.1514      0.00000
      7      11.2999      0.00000
      8      11.9899      0.00000

 k-point    62 :       0.3333    0.0000    0.4286
  band No.  band energies     occupation 
      1      -1.1217      2.00000
      2      -0.3334      2.00000
      3       5.0567      0.00000
      4       5.8057      0.00000
      5       8.8319      0.00000
      6      10.6407      0.00000
      7      10.7319      0.00000
      8      11.4211      0.00000

 k-point    63 :       0.4167   -0.0000    0.4286
  band No.  band energies     occupation 
      1       0.0465      2.00000
      2       0.8125      2.00000
      3       3.2063      0.00000
      4       3.9518      0.00000
      5       9.6806      0.00000
      6      10.3907      0.00000
      7      10.8446      0.00000
      8      11.0786      0.00000

 k-point    64 :       0.5000    0.0000    0.4286
  band No.  band energies     occupation 
      1       1.3722      2.00000
      2       1.3868      2.00000
      3       2.3833      1.99553
      4       2.4059      1.98836
      5      10.2489      0.00000
      6      10.2770      0.00000
      7      10.7253      0.00000
      8      10.9643      0.00000

 k-point    65 :       0.0833    0.0833    0.4286
  band No.  band energies     occupation 
      1      -2.8424      2.00000
      2      -2.0375      2.00000
      3       7.1967      0.00000
      4       9.3175      0.00000
      5      10.7600      0.00000
      6      10.8533      0.00000
      7      11.9393      0.00000
      8      12.0811      0.00000

 k-point    66 :       0.1667    0.0833    0.4286
  band No.  band energies     occupation 
      1      -2.3094      2.00000
      2      -1.5092      2.00000
      3       7.5012      0.00000
      4       8.5147      0.00000
      5       9.0016      0.00000
      6       9.6442      0.00000
      7      10.6344      0.00000
      8      11.1935      0.00000

 k-point    67 :       0.2500    0.0833    0.4286
  band No.  band energies     occupation 
      1      -1.5157      2.00000
      2      -0.7230      2.00000
      3       6.1379      0.00000
      4       6.8748      0.00000
      5       8.3373      0.00000
      6       9.3940      0.00000
      7      10.1227      0.00000
      8      11.1722      0.00000

 k-point    68 :       0.3333    0.0833    0.4286
  band No.  band energies     occupation 
      1      -0.4695      2.00000
      2       0.3100      2.00000
      3       4.1926      0.00000
      4       4.9376      0.00000
      5       8.5232      0.00000
      6       9.2356      0.00000
      7      10.1317      0.00000
      8      11.8458      0.00000

 k-point    69 :       0.4167    0.0833    0.4286
  band No.  band energies     occupation 
      1       0.8067      2.00000
      2       1.5077      2.00000
      3       2.5191      1.64330
      4       3.2088      0.00000
      5       8.4173      0.00000
      6       9.1367      0.00000
      7      10.9766      0.00000
      8      12.0935      0.00000

 k-point    70 :       0.1667    0.1667    0.4286
  band No.  band energies     occupation 
      1      -1.6475      2.00000
      2      -0.8534      2.00000
      3       7.3099      0.00000
      4       7.3595      0.00000
      5       7.9255      0.00000
      6       8.4235      0.00000
      7       9.4192      0.00000
      8      11.0405      0.00000

 k-point    71 :       0.2500    0.1667    0.4286
  band No.  band energies     occupation 
      1      -0.7295      2.00000
      2       0.0545      2.00000
      3       5.3962      0.00000
      4       6.0490      0.00000
      5       7.0741      0.00000
      6       7.7342      0.00000
      7       9.7279      0.00000
      8      11.7669      0.00000

 k-point    72 :       0.3333    0.1667    0.4286
  band No.  band energies     occupation 
      1       0.4321      2.00000
      2       1.1916      2.00000
      3       3.5743      0.00000
      4       4.2952      0.00000
      5       6.6694      0.00000
      6       7.3902      0.00000
      7      10.6947      0.00000
      8      12.7707      0.00000

 k-point    73 :       0.4167    0.1667    0.4286
  band No.  band energies     occupation 
      1       1.7446      2.00000
      2       1.7575      2.00000
      3       2.7698      0.00871
      4       2.7737      0.00739
      5       6.5411      0.00000
      6       7.2720      0.00000
      7      11.8690      0.00000
      8      12.0614      0.00000

 k-point    74 :       0.2500    0.2500    0.4286
  band No.  band energies     occupation 
      1       0.3053      2.00000
      2       1.0723      2.00000
      3       4.7434      0.00000
      4       4.8713      0.00000
      5       5.8604      0.00000
      6       6.0024      0.00000
      7      10.5803      0.00000
      8      12.7004      0.00000

 k-point    75 :       0.3333    0.2500    0.4286
  band No.  band energies     occupation 
      1       1.5619      2.00000
      2       2.2358      2.00000
      3       3.2466      0.00000
      4       3.8366      0.00000
      5       4.9636      0.00000
      6       5.5973      0.00000
      7      11.7560      0.00000
      8      13.1590      0.00000

 k-point    76 :       0.3333    0.3333    0.4286
  band No.  band energies     occupation 
      1       2.7363      0.03161
      2       2.7363      0.03161
      3       2.9596      0.00000
      4       3.7185      0.00000
      5       4.2883      0.00000
      6       4.2883      0.00000
      7      12.8917      0.00000
      8      13.1535      0.00000


--------------------------------------------------------------------------------------------------------


 soft charge-density along one line, spin component           1
         0         1         2         3         4         5         6         7         8         9
 total charge-density along one line
 
 pseudopotential strength for first ion, spin component:           1
  2.997   9.601  -0.000  -0.000   0.000  -0.000  -0.000   0.000
  9.601  30.568  -0.000  -0.000   0.000  -0.000  -0.000   0.000
 -0.000  -0.000   7.067  -0.000  -0.000  10.444  -0.000  -0.000
 -0.000  -0.000  -0.000   7.067  -0.000  -0.000  10.445  -0.000
  0.000   0.000  -0.000  -0.000   7.067  -0.000  -0.000  10.444
 -0.000  -0.000  10.444  -0.000  -0.000  14.571  -0.000  -0.000
 -0.000  -0.000  -0.000  10.445  -0.000  -0.000  14.572  -0.000
  0.000   0.000  -0.000  -0.000  10.444  -0.000  -0.000  14.571
 -0.000  -0.000   0.000   0.000   0.000   0.000   0.000   0.000
 -0.000  -0.000  -0.000   0.000   0.000  -0.000   0.000   0.000
  0.000   0.000   0.000  -0.000  -0.000   0.000  -0.000  -0.000
 -0.000  -0.000   0.000  -0.000   0.000   0.000  -0.000   0.000
  0.000   0.000   0.000   0.000   0.000   0.000   0.000   0.000
 total augmentation occupancy for first ion, spin component:           1
  1.250  -0.022  -0.000  -0.000  -0.000   0.000   0.000  -0.000  -0.000   0.000   0.002   0.000  -0.000
 -0.022   0.001   0.000   0.000  -0.000   0.000   0.000  -0.000   0.000  -0.000  -0.000  -0.000   0.000
 -0.000   0.000   0.079   0.000   0.000  -0.006  -0.000  -0.000   0.000   0.000   0.000  -0.000  -0.004
 -0.000  -0.000   0.000   0.078  -0.000  -0.000  -0.005   0.000   0.000  -0.000  -0.000  -0.000   0.000
  0.000   0.000   0.000  -0.000   0.079  -0.000   0.000  -0.006  -0.004   0.000   0.000  -0.000  -0.000
  0.000  -0.000  -0.006  -0.000  -0.000   0.000   0.000   0.000  -0.000  -0.000  -0.000  -0.000   0.000
  0.000   0.000  -0.000  -0.005   0.000   0.000   0.000  -0.000   0.000  -0.000  -0.000   0.000   0.000
  0.000   0.000  -0.000  -0.000  -0.006   0.000   0.000   0.000   0.000   0.000  -0.000   0.000   0.000
 -0.000   0.000   0.000   0.000  -0.004  -0.000   0.000   0.000   0.004  -0.000  -0.000   0.000  -0.000
 -0.000   0.000   0.000  -0.000   0.000  -0.000   0.000  -0.000  -0.000   0.004   0.000   0.000  -0.000
  0.002  -0.000   0.000  -0.000   0.000  -0.000   0.000  -0.000  -0.000   0.000   0.005  -0.000  -0.000
  0.000  -0.000   0.000  -0.000  -0.000   0.000   0.000  -0.000   0.000   0.000   0.000   0.004  -0.000
 -0.000   0.000  -0.004   0.000  -0.000   0.000  -0.000   0.000  -0.000  -0.000  -0.000  -0.000   0.004


------------------------ aborting loop because EDIFF is reached ----------------------------------------





 total charge

# of ion       s       p       d       tot
------------------------------------------
    1        0.208   0.128   0.012   0.347
    2        0.208   0.128   0.012   0.347
--------------------------------------------------
tot          0.416   0.255   0.023   0.694
 
    CHARGE:  cpu time      0.0022: real time      0.0022
    FORLOC:  cpu time      0.0001: real time      0.0001
    FORNL :  cpu time      0.0027: real time      0.0027
    STRESS:  cpu time      0.0848: real time      0.0854
    FORCOR:  cpu time      0.0027: real time      0.0027
    FORHAR:  cpu time      0.0006: real time      0.0006
    MIXING:  cpu time      0.0003: real time      0.0003
    OFIELD:  cpu time      0.0000: real time      0.0000

  FORCE on cell =-STRESS in cart. coord.  units (eV):
  Direction    XX          YY          ZZ          XY          YZ          ZX
  --------------------------------------------------------------------------------------
  Alpha Z     3.93797     3.93797     3.93797
  Ewald     -19.72660   -19.72660   -19.16017     0.00000     0.00000    -0.00000
  Hartree     0.03746     0.03746     0.04702     0.00000    -0.00000    -0.00000
  E(xc)      -9.69513    -9.69511    -9.70479     0.00002     0.00000     0.00000
  Local      -0.31221    -0.31221    -0.64089     0.00000     0.00000     0.00000
  n-local    13.26496    13.04779    13.21934     0.26474    -0.11832    -0.19542
  augment     0.11715     0.11715     0.11467     0.00000     0.00000     0.00000
  Kinetic    14.64330    10.32218    12.18125     9.14584    -1.83099    -2.49687
  Fock        0.00000     0.00000     0.00000     0.00000     0.00000     0.00000
  -------------------------------------------------------------------------------------
  Total      -0.00224    -0.00224    -0.00561    -0.00000     0.00000    -0.00000
  in kB      -0.07850    -0.07850    -0.19654    -0.00000     0.00000    -0.00000
  external pressure =       -0.12 kB  Pullay stress =        0.00 kB


 VOLUME and BASIS-vectors are now :
 -----------------------------------------------------------------------------
  energy-cutoff  :      400.00
  volume of cell :       45.71
      direct lattice vectors                 reciprocal lattice vectors
     3.209192875  0.000000000  0.000000000     0.311604830  0.179905132  0.000000000
    -1.604596437  2.779242555  0.000000000    -0.000000000  0.359810265  0.000000000
    -0.000000000 -0.000000000  5.125463248    -0.000000000 -0.000000000  0.195104316

  length of vectors
     3.209192875  3.209192875  5.125463248     0.359810265  0.359810265  0.195104316


 FORCES acting on ions
    electron-ion (+dipol)            ewald-force                    non-local-force                 convergence-correction
 -----------------------------------------------------------------------------------------------
   0.167E-06 -.961E-07 0.400E-10   0.217E-09 -.174E-09 -.686E-15   -.655E-18 -.824E-17 -.914E-18   -.985E-11 0.569E-11 -.711E-15
   -.166E-06 0.958E-07 0.400E-10   -.217E-09 0.174E-09 0.686E-15   0.969E-17 0.915E-17 0.617E-18   0.985E-11 -.569E-11 0.735E-15
 -----------------------------------------------------------------------------------------------
   0.501E-09 -.289E-09 0.800E-10   -.152E-15 0.330E-15 -.423E-19   0.904E-17 0.913E-18 -.297E-18   0.139E-15 -.811E-16 0.243E-16
 
 
 POSITION                                       TOTAL-FORCE (eV/Angst)
 -----------------------------------------------------------------------------------
     -0.00000      1.85283      1.28137        -0.000000      0.000000     -0.000000
      1.60460      0.92641      3.84410         0.000000     -0.000000      0.000000
 -----------------------------------------------------------------------------------
    total drift:                                0.000000     -0.000000      0.000000


--------------------------------------------------------------------------------------------------------



  FREE ENERGIE OF THE ION-ELECTRON SYSTEM (eV)
  ---------------------------------------------------
  free  energy   TOTEN  =        -3.01621496 eV

  energy  without entropy=       -3.01289514  energy(sigma->0) =       -3.01455505
 
 d Force = 0.0000000E+00[ 0.000E+00, 0.000E+00]  d Energy = 0.6216563E-04-0.622E-04
 d Force = 0.0000000E+00[ 0.000E+00, 0.000E+00]  d Ewald  = 0.1875993E-01-0.188E-01


--------------------------------------------------------------------------------------------------------


    POTLOK:  cpu time      0.1027: real time      0.1036


--------------------------------------------------------------------------------------------------------


 stress matrix after NEB project (eV)
     -0.00224     -0.00000     -0.00000
     -0.00000     -0.00224     -0.00000
      0.00000      0.00000     -0.00561
  FORCES: max atom, RMS     0.000000    0.000000
  FORCE total and by dimension    0.000000    0.000000
  Stress total and by dimension    0.006441    0.005608


--------------------------------------------------------------------------------------------------------


  
 reached required accuracy - stopping structural energy minimisation
     LOOP+:  cpu time      0.8028: real time      0.8186
    4ORBIT:  cpu time      0.0000: real time      0.0000



 total charge

# of ion       s       p       d       tot
------------------------------------------
    1        0.208   0.128   0.012   0.347
    2        0.208   0.128   0.012   0.347
--------------------------------------------------
tot          0.416   0.255   0.023   0.694
 

 total amount of memory used by VASP MPI-rank0    38659. kBytes
=======================================================================

   base      :      30000. kBytes
   nonl-proj :       6666. kBytes
   fftplans  :        274. kBytes
   grid      :        643. kBytes
   one-center:         16. kBytes
   wavefun   :       1060. kBytes
 
  
  
 General timing and accounting informations for this job:
 ========================================================
  
                  Total CPU time used (sec):        5.930
                            User time (sec):        5.601
                          System time (sec):        0.330
                         Elapsed time (sec):        7.024
  
                   Maximum memory used (kb):      278780.
                   Average memory used (kb):          N/A
  
                          Minor page faults:        24402
                          Major page faults:          104
                 Voluntary context switches:         2836
