PROCAR new format
# of k-points:   76         # of bands:    8         # of ions:    2

 k-point     1 :    0.00000000 0.00000000 0.00000000     weight = 0.00099206

band     1 # energy   -4.29402346 # occ.  2.00000000
 
ion      s      p      d    tot
    1  0.089  0.000  0.000  0.089
    2  0.089  0.000  0.000  0.089
tot    0.178  0.000  0.000  0.178
 
band     2 # energy    1.05132924 # occ.  2.00000000
 
ion      s      p      d    tot
    1  0.000  0.068  0.000  0.068
    2  0.000  0.068  0.000  0.068
tot    0.000  0.136  0.000  0.136
 
band     3 # energy    1.56878618 # occ.  2.00000000
 
ion      s      p      d    tot
    1  0.103  0.000  0.011  0.114
    2  0.103  0.000  0.011  0.114
tot    0.207  0.000  0.021  0.228
 
band     4 # energy   13.44780432 # occ.  0.00000000
 
ion      s      p      d    tot
    1  0.000  0.029  0.083  0.112
    2  0.000  0.029  0.083  0.112
tot    0.000  0.057  0.167  0.224
 
band     5 # energy   13.44781299 # occ.  0.00000000
 
ion      s      p      d    tot
    1  0.000  0.029  0.083  0.112
    2  0.000  0.029  0.083  0.112
tot    0.000  0.057  0.167  0.224
 
band     6 # energy   13.53062685 # occ.  0.00000000
 
ion      s      p      d    tot
    1  0.000  0.109  0.036  0.146
    2  0.000  0.109  0.036  0.146
tot    0.000  0.219  0.073  0.292
 
band     7 # energy   13.53063215 # occ.  0.00000000
 
ion      s      p      d    tot
    1  0.000  0.109  0.036  0.146
    2  0.000  0.109  0.036  0.146
tot    0.000  0.219  0.073  0.292
 
band     8 # energy   14.57763332 # occ.  0.00000000
 
ion      s      p      d    tot
    1  0.002  0.000  0.088  0.090
    2  0.002  0.000  0.088  0.090
tot    0.004  0.000  0.175  0.180
 

 k-point     2 :    0.08333333-0.00000000 0.00000000     weight = 0.00595238

band     1 # energy   -4.15842637 # occ.  2.00000000
 
ion      s      p      d    tot
    1  0.088  0.001  0.000  0.089
    2  0.088  0.001  0.000  0.089
tot    0.176  0.002  0.000  0.178
 
band     2 # energy    1.17498281 # occ.  2.00000000
 
ion      s      p      d    tot
    1  0.000  0.067  0.001  0.068
    2  0.000  0.067  0.001  0.068
tot    0.000  0.135  0.001  0.136
 
band     3 # energy    1.70020525 # occ.  2.00000000
 
ion      s      p      d    tot
    1  0.101  0.002  0.011  0.114
    2  0.101  0.002  0.011  0.114
tot    0.202  0.004  0.021  0.227
 
band     4 # energy   11.18587739 # occ.  0.00000000
 
ion      s      p      d    tot
    1  0.013  0.057  0.041  0.110
    2  0.013  0.057  0.041  0.110
tot    0.025  0.113  0.082  0.220
 
band     5 # energy   12.23727786 # occ.  0.00000000
 
ion      s      p      d    tot
    1  0.000  0.083  0.041  0.124
    2  0.000  0.083  0.041  0.124
tot    0.000  0.167  0.081  0.248
 
band     6 # energy   13.08041131 # occ.  0.00000000
 
ion      s      p      d    tot
    1  0.022  0.025  0.063  0.110
    2  0.022  0.025  0.063  0.110
tot    0.044  0.051  0.125  0.220
 
band     7 # energy   14.93487934 # occ.  0.00000000
 
ion      s      p      d    tot
    1  0.000  0.042  0.089  0.132
    2  0.000  0.042  0.089  0.132
tot    0.000  0.084  0.179  0.263
 
band     8 # energy   15.56334306 # occ.  0.00000000
 
ion      s      p      d    tot
    1  0.002  0.008  0.119  0.129
    2  0.002  0.008  0.119  0.129
tot    0.003  0.016  0.239  0.258
 

 k-point     3 :    0.16666667-0.00000000 0.00000000     weight = 0.00595238

band     1 # energy   -3.75276955 # occ.  2.00000000
 
ion      s      p      d    tot
    1  0.085  0.004  0.000  0.089
    2  0.085  0.004  0.000  0.089
tot    0.170  0.009  0.000  0.178
 
band     2 # energy    1.54615851 # occ.  2.00000000
 
ion      s      p      d    tot
    1  0.000  0.066  0.002  0.068
    2  0.000  0.066  0.002  0.068
tot    0.000  0.133  0.004  0.137
 
band     3 # energy    2.08907309 # occ.  2.00000000
 
ion      s      p      d    tot
    1  0.093  0.009  0.010  0.112
    2  0.093  0.009  0.010  0.112
tot    0.185  0.018  0.020  0.224
 
band     4 # energy    8.68076831 # occ.  0.00000000
 
ion      s      p      d    tot
    1  0.027  0.051  0.027  0.105
    2  0.027  0.051  0.027  0.105
tot    0.054  0.102  0.054  0.209
 
band     5 # energy   11.21185463 # occ.  0.00000000
 
ion      s      p      d    tot
    1  0.000  0.095  0.025  0.120
    2  0.000  0.095  0.025  0.120
tot    0.000  0.190  0.051  0.241
 
band     6 # energy   11.88230935 # occ.  0.00000000
 
ion      s      p      d    tot
    1  0.025  0.004  0.066  0.095
    2  0.025  0.004  0.066  0.095
tot    0.049  0.009  0.131  0.189
 
band     7 # energy   13.47211721 # occ.  0.00000000
 
ion      s      p      d    tot
    1  0.000  0.033  0.068  0.101
    2  0.000  0.033  0.068  0.101
tot    0.000  0.066  0.137  0.203
 
band     8 # energy   14.51165961 # occ.  0.00000000
 
ion      s      p      d    tot
    1  0.039  0.108  0.034  0.181
    2  0.039  0.108  0.034  0.181
tot    0.078  0.216  0.068  0.362
 

 k-point     4 :    0.25000000 0.00000000 0.00000000     weight = 0.00595238

band     1 # energy   -3.08049331 # occ.  2.00000000
 
ion      s      p      d    tot
    1  0.080  0.009  0.000  0.089
    2  0.080  0.009  0.000  0.089
tot    0.159  0.019  0.000  0.178
 
band     2 # energy    2.16540007 # occ.  2.00000000
 
ion      s      p      d    tot
    1  0.000  0.064  0.005  0.069
    2  0.000  0.064  0.005  0.069
tot    0.000  0.129  0.010  0.139
 
band     3 # energy    2.70918188 # occ.  0.07736781
 
ion      s      p      d    tot
    1  0.075  0.022  0.010  0.107
    2  0.075  0.022  0.010  0.107
tot    0.151  0.045  0.019  0.214
 
band     4 # energy    6.36893801 # occ.  0.00000000
 
ion      s      p      d    tot
    1  0.046  0.041  0.018  0.105
    2  0.046  0.041  0.018  0.105
tot    0.093  0.082  0.035  0.210
 
band     5 # energy   10.41561051 # occ.  0.00000000
 
ion      s      p      d    tot
    1  0.000  0.103  0.014  0.117
    2  0.000  0.103  0.014  0.117
tot    0.000  0.206  0.028  0.235
 
band     6 # energy   10.62455608 # occ.  0.00000000
 
ion      s      p      d    tot
    1  0.012  0.009  0.062  0.083
    2  0.012  0.009  0.062  0.083
tot    0.024  0.018  0.125  0.167
 
band     7 # energy   11.14363850 # occ.  0.00000000
 
ion      s      p      d    tot
    1  0.000  0.038  0.051  0.089
    2  0.000  0.038  0.051  0.089
tot    0.000  0.076  0.102  0.179
 
band     8 # energy   12.87490232 # occ.  0.00000000
 
ion      s      p      d    tot
    1  0.090  0.088  0.015  0.193
    2  0.090  0.088  0.015  0.193
tot    0.180  0.177  0.030  0.386
 

 k-point     5 :    0.33333333 0.00000000 0.00000000     weight = 0.00595238

band     1 # energy   -2.14725627 # occ.  2.00000000
 
ion      s      p      d    tot
    1  0.072  0.016  0.001  0.089
    2  0.072  0.016  0.001  0.089
tot    0.144  0.033  0.001  0.178
 
band     2 # energy    3.03320031 # occ.  0.00000000
 
ion      s      p      d    tot
    1  0.000  0.062  0.009  0.071
    2  0.000  0.062  0.009  0.071
tot    0.000  0.124  0.017  0.142
 
band     3 # energy    3.30470185 # occ.  0.00000000
 
ion      s      p      d    tot
    1  0.019  0.056  0.009  0.084
    2  0.019  0.056  0.009  0.084
tot    0.037  0.113  0.018  0.168
 
band     4 # energy    4.53632556 # occ.  0.00000000
 
ion      s      p      d    tot
    1  0.100  0.012  0.012  0.124
    2  0.100  0.012  0.012  0.124
tot    0.201  0.024  0.024  0.249
 
band     5 # energy    9.03231199 # occ.  0.00000000
 
ion      s      p      d    tot
    1  0.000  0.043  0.039  0.082
    2  0.000  0.043  0.039  0.082
tot    0.000  0.085  0.078  0.163
 
band     6 # energy    9.22349139 # occ.  0.00000000
 
ion      s      p      d    tot
    1  0.009  0.031  0.046  0.087
    2  0.009  0.031  0.046  0.087
tot    0.019  0.062  0.092  0.173
 
band     7 # energy    9.84821702 # occ.  0.00000000
 
ion      s      p      d    tot
    1  0.000  0.109  0.006  0.115
    2  0.000  0.109  0.006  0.115
tot    0.000  0.218  0.012  0.230
 
band     8 # energy   11.69618130 # occ.  0.00000000
 
ion      s      p      d    tot
    1  0.125  0.045  0.020  0.190
    2  0.125  0.045  0.020  0.190
tot    0.251  0.089  0.040  0.380
 

 k-point     6 :    0.41666667-0.00000000 0.00000000     weight = 0.00595238

band     1 # energy   -0.96134074 # occ.  2.00000000
 
ion      s      p      d    tot
    1  0.063  0.025  0.002  0.089
    2  0.063  0.025  0.002  0.089
tot    0.125  0.049  0.003  0.177
 
band     2 # energy    2.08765128 # occ.  2.00000000
 
ion      s      p      d    tot
    1  0.030  0.048  0.006  0.084
    2  0.030  0.048  0.006  0.084
tot    0.060  0.096  0.012  0.168
 
band     3 # energy    4.14792669 # occ.  0.00000000
 
ion      s      p      d    tot
    1  0.000  0.060  0.013  0.073
    2  0.000  0.060  0.013  0.073
tot    0.000  0.120  0.026  0.147
 
band     4 # energy    4.96341882 # occ.  0.00000000
 
ion      s      p      d    tot
    1  0.082  0.026  0.012  0.120
    2  0.082  0.026  0.012  0.120
tot    0.163  0.053  0.023  0.240
 
band     5 # energy    7.16564971 # occ.  0.00000000
 
ion      s      p      d    tot
    1  0.000  0.046  0.030  0.076
    2  0.000  0.046  0.030  0.076
tot    0.000  0.092  0.060  0.152
 
band     6 # energy    7.71647807 # occ.  0.00000000
 
ion      s      p      d    tot
    1  0.029  0.040  0.030  0.099
    2  0.029  0.040  0.030  0.099
tot    0.058  0.081  0.059  0.198
 
band     7 # energy    9.50845033 # occ.  0.00000000
 
ion      s      p      d    tot
    1  0.000  0.112  0.002  0.114
    2  0.000  0.112  0.002  0.114
tot    0.000  0.225  0.003  0.228
 
band     8 # energy   11.05717556 # occ.  0.00000000
 
ion      s      p      d    tot
    1  0.136  0.014  0.030  0.180
    2  0.136  0.014  0.030  0.180
tot    0.272  0.029  0.060  0.361
 

 k-point     7 :    0.50000000 0.00000000 0.00000000     weight = 0.00297619

band     1 # energy    0.46099850 # occ.  2.00000000
 
ion      s      p      d    tot
    1  0.077  0.020  0.005  0.102
    2  0.077  0.020  0.005  0.102
tot    0.154  0.039  0.010  0.204
 
band     2 # energy    0.46656826 # occ.  2.00000000
 
ion      s      p      d    tot
    1  0.023  0.049  0.001  0.073
    2  0.023  0.049  0.001  0.073
tot    0.045  0.099  0.003  0.147
 
band     3 # energy    5.34687816 # occ.  0.00000000
 
ion      s      p      d    tot
    1  0.000  0.077  0.010  0.087
    2  0.000  0.077  0.010  0.087
tot    0.000  0.154  0.020  0.175
 
band     4 # energy    5.71528485 # occ.  0.00000000
 
ion      s      p      d    tot
    1  0.000  0.029  0.032  0.061
    2  0.000  0.029  0.032  0.061
tot    0.000  0.059  0.063  0.122
 
band     5 # energy    6.06388921 # occ.  0.00000000
 
ion      s      p      d    tot
    1  0.042  0.063  0.006  0.111
    2  0.042  0.063  0.006  0.111
tot    0.084  0.126  0.012  0.222
 
band     6 # energy    6.42747283 # occ.  0.00000000
 
ion      s      p      d    tot
    1  0.064  0.014  0.030  0.109
    2  0.064  0.014  0.030  0.109
tot    0.129  0.029  0.060  0.217
 
band     7 # energy    9.39531591 # occ.  0.00000000
 
ion      s      p      d    tot
    1  0.000  0.113  0.000  0.113
    2  0.000  0.113  0.000  0.113
tot    0.000  0.227  0.000  0.227
 
band     8 # energy   10.85852865 # occ.  0.00000000
 
ion      s      p      d    tot
    1  0.137  0.005  0.034  0.176
    2  0.137  0.005  0.034  0.176
tot    0.275  0.011  0.067  0.353
 

 k-point     8 :    0.08333333 0.08333333 0.00000000     weight = 0.00595238

band     1 # energy   -3.88780597 # occ.  2.00000000
 
ion      s      p      d    tot
    1  0.086  0.003  0.000  0.089
    2  0.086  0.003  0.000  0.089
tot    0.172  0.006  0.000  0.178
 
band     2 # energy    1.42239881 # occ.  2.00000000
 
ion      s      p      d    tot
    1  0.000  0.067  0.002  0.068
    2  0.000  0.067  0.002  0.068
tot    0.000  0.133  0.003  0.137
 
band     3 # energy    1.96050727 # occ.  2.00000000
 
ion      s      p      d    tot
    1  0.096  0.007  0.010  0.113
    2  0.096  0.007  0.010  0.113
tot    0.191  0.014  0.021  0.225
 
band     4 # energy    9.86669838 # occ.  0.00000000
 
ion      s      p      d    tot
    1  0.005  0.049  0.038  0.092
    2  0.005  0.049  0.038  0.092
tot    0.010  0.097  0.076  0.183
 
band     5 # energy   10.14609324 # occ.  0.00000000
 
ion      s      p      d    tot
    1  0.035  0.066  0.026  0.127
    2  0.035  0.066  0.026  0.127
tot    0.070  0.131  0.052  0.254
 
band     6 # energy   14.15110278 # occ.  0.00000000
 
ion      s      p      d    tot
    1  0.005  0.009  0.090  0.104
    2  0.005  0.009  0.090  0.104
tot    0.009  0.018  0.180  0.208
 
band     7 # energy   14.16965134 # occ.  0.00000000
 
ion      s      p      d    tot
    1  0.000  0.059  0.059  0.119
    2  0.000  0.059  0.059  0.119
tot    0.000  0.119  0.118  0.237
 
band     8 # energy   14.49068118 # occ.  0.00000000
 
ion      s      p      d    tot
    1  0.000  0.037  0.081  0.117
    2  0.000  0.037  0.081  0.117
tot    0.000  0.073  0.161  0.235
 

 k-point     9 :    0.16666667 0.08333333 0.00000000     weight = 0.01190476

band     1 # energy   -3.34883956 # occ.  2.00000000
 
ion      s      p      d    tot
    1  0.082  0.007  0.000  0.089
    2  0.082  0.007  0.000  0.089
tot    0.163  0.015  0.000  0.178
 
band     2 # energy    1.91762742 # occ.  2.00000000
 
ion      s      p      d    tot
    1  0.000  0.065  0.004  0.069
    2  0.000  0.065  0.004  0.069
tot    0.000  0.130  0.008  0.138
 
band     3 # energy    2.46800348 # occ.  1.89994984
 
ion      s      p      d    tot
    1  0.083  0.016  0.010  0.110
    2  0.083  0.016  0.010  0.110
tot    0.167  0.033  0.020  0.219
 
band     4 # energy    7.57060804 # occ.  0.00000000
 
ion      s      p      d    tot
    1  0.031  0.048  0.023  0.101
    2  0.031  0.048  0.023  0.101
tot    0.062  0.095  0.045  0.203
 
band     5 # energy    9.03827019 # occ.  0.00000000
 
ion      s      p      d    tot
    1  0.028  0.056  0.026  0.110
    2  0.028  0.056  0.026  0.110
tot    0.056  0.112  0.052  0.220
 
band     6 # energy   12.33710789 # occ.  0.00000000
 
ion      s      p      d    tot
    1  0.000  0.038  0.060  0.098
    2  0.000  0.038  0.060  0.098
tot    0.000  0.076  0.120  0.196
 
band     7 # energy   12.67509700 # occ.  0.00000000
 
ion      s      p      d    tot
    1  0.005  0.051  0.054  0.110
    2  0.005  0.051  0.054  0.110
tot    0.010  0.101  0.108  0.219
 
band     8 # energy   13.96789952 # occ.  0.00000000
 
ion      s      p      d    tot
    1  0.000  0.017  0.076  0.093
    2  0.000  0.017  0.076  0.093
tot    0.000  0.033  0.152  0.185
 

 k-point    10 :    0.25000000 0.08333333 0.00000000     weight = 0.01190476

band     1 # energy   -2.54608120 # occ.  2.00000000
 
ion      s      p      d    tot
    1  0.075  0.013  0.000  0.089
    2  0.075  0.013  0.000  0.089
tot    0.151  0.027  0.001  0.178
 
band     2 # energy    2.66121834 # occ.  0.27665684
 
ion      s      p      d    tot
    1  0.000  0.063  0.007  0.070
    2  0.000  0.063  0.007  0.070
tot    0.000  0.126  0.014  0.140
 
band     3 # energy    3.15696953 # occ.  0.00000000
 
ion      s      p      d    tot
    1  0.055  0.036  0.010  0.100
    2  0.055  0.036  0.010  0.100
tot    0.110  0.071  0.019  0.200
 
band     4 # energy    5.41970732 # occ.  0.00000000
 
ion      s      p      d    tot
    1  0.060  0.034  0.014  0.108
    2  0.060  0.034  0.014  0.108
tot    0.120  0.067  0.029  0.216
 
band     5 # energy    8.24665174 # occ.  0.00000000
 
ion      s      p      d    tot
    1  0.025  0.054  0.024  0.103
    2  0.025  0.054  0.024  0.103
tot    0.051  0.107  0.048  0.206
 
band     6 # energy   10.14242538 # occ.  0.00000000
 
ion      s      p      d    tot
    1  0.000  0.041  0.045  0.086
    2  0.000  0.041  0.045  0.086
tot    0.000  0.082  0.090  0.173
 
band     7 # energy   10.95834590 # occ.  0.00000000
 
ion      s      p      d    tot
    1  0.032  0.068  0.028  0.128
    2  0.032  0.068  0.028  0.128
tot    0.065  0.136  0.055  0.256
 
band     8 # energy   13.17330307 # occ.  0.00000000
 
ion      s      p      d    tot
    1  0.000  0.021  0.072  0.092
    2  0.000  0.021  0.072  0.092
tot    0.000  0.041  0.143  0.184
 

 k-point    11 :    0.33333333 0.08333333 0.00000000     weight = 0.01190476

band     1 # energy   -1.48640031 # occ.  2.00000000
 
ion      s      p      d    tot
    1  0.067  0.021  0.001  0.089
    2  0.067  0.021  0.001  0.089
tot    0.134  0.042  0.002  0.178
 
band     2 # energy    2.98578978 # occ.  0.00000001
 
ion      s      p      d    tot
    1  0.012  0.059  0.008  0.079
    2  0.012  0.059  0.008  0.079
tot    0.024  0.118  0.016  0.157
 
band     3 # energy    3.65312793 # occ.  0.00000000
 
ion      s      p      d    tot
    1  0.000  0.061  0.011  0.072
    2  0.000  0.061  0.011  0.072
tot    0.000  0.121  0.023  0.144
 
band     4 # energy    4.56797832 # occ.  0.00000000
 
ion      s      p      d    tot
    1  0.096  0.016  0.011  0.124
    2  0.096  0.016  0.011  0.124
tot    0.193  0.032  0.023  0.248
 
band     5 # energy    7.59114304 # occ.  0.00000000
 
ion      s      p      d    tot
    1  0.016  0.053  0.025  0.093
    2  0.016  0.053  0.025  0.093
tot    0.031  0.106  0.050  0.187
 
band     6 # energy    8.15801895 # occ.  0.00000000
 
ion      s      p      d    tot
    1  0.000  0.045  0.034  0.079
    2  0.000  0.045  0.034  0.079
tot    0.000  0.090  0.069  0.159
 
band     7 # energy    9.37500378 # occ.  0.00000000
 
ion      s      p      d    tot
    1  0.074  0.065  0.009  0.148
    2  0.074  0.065  0.009  0.148
tot    0.147  0.131  0.018  0.296
 
band     8 # energy   12.65475116 # occ.  0.00000000
 
ion      s      p      d    tot
    1  0.000  0.022  0.069  0.091
    2  0.000  0.022  0.069  0.091
tot    0.000  0.045  0.138  0.182
 

 k-point    12 :    0.41666667 0.08333333 0.00000000     weight = 0.01190476

band     1 # energy   -0.18005655 # occ.  2.00000000
 
ion      s      p      d    tot
    1  0.056  0.030  0.002  0.088
    2  0.056  0.030  0.002  0.088
tot    0.112  0.060  0.005  0.177
 
band     2 # energy    1.35228682 # occ.  2.00000000
 
ion      s      p      d    tot
    1  0.041  0.041  0.005  0.086
    2  0.041  0.041  0.005  0.086
tot    0.082  0.082  0.009  0.173
 
band     3 # energy    4.88397655 # occ.  0.00000000
 
ion      s      p      d    tot
    1  0.000  0.061  0.015  0.076
    2  0.000  0.061  0.015  0.076
tot    0.000  0.122  0.031  0.152
 
band     4 # energy    5.58249956 # occ.  0.00000000
 
ion      s      p      d    tot
    1  0.053  0.040  0.014  0.108
    2  0.053  0.040  0.014  0.108
tot    0.107  0.081  0.029  0.216
 
band     5 # energy    6.42679968 # occ.  0.00000000
 
ion      s      p      d    tot
    1  0.000  0.045  0.027  0.073
    2  0.000  0.045  0.027  0.073
tot    0.000  0.091  0.055  0.146
 
band     6 # energy    6.75170598 # occ.  0.00000000
 
ion      s      p      d    tot
    1  0.018  0.051  0.023  0.092
    2  0.018  0.051  0.023  0.092
tot    0.035  0.103  0.046  0.183
 
band     7 # energy    8.40919448 # occ.  0.00000000
 
ion      s      p      d    tot
    1  0.105  0.055  0.000  0.161
    2  0.105  0.055  0.000  0.161
tot    0.211  0.110  0.001  0.321
 
band     8 # energy   12.39671634 # occ.  0.00000000
 
ion      s      p      d    tot
    1  0.000  0.023  0.068  0.091
    2  0.000  0.023  0.068  0.091
tot    0.000  0.046  0.135  0.182
 

 k-point    13 :    0.16666667 0.16666667 0.00000000     weight = 0.00595238

band     1 # energy   -2.67939448 # occ.  2.00000000
 
ion      s      p      d    tot
    1  0.076  0.012  0.000  0.089
    2  0.076  0.012  0.000  0.089
tot    0.153  0.025  0.001  0.178
 
band     2 # energy    2.53724496 # occ.  1.49419776
 
ion      s      p      d    tot
    1  0.000  0.063  0.007  0.070
    2  0.000  0.063  0.007  0.070
tot    0.000  0.127  0.013  0.140
 
band     3 # energy    3.06572953 # occ.  0.00000000
 
ion      s      p      d    tot
    1  0.064  0.030  0.010  0.104
    2  0.064  0.030  0.010  0.104
tot    0.128  0.060  0.019  0.207
 
band     4 # energy    6.52067979 # occ.  0.00000000
 
ion      s      p      d    tot
    1  0.010  0.049  0.022  0.081
    2  0.010  0.049  0.022  0.081
tot    0.020  0.098  0.045  0.162
 
band     5 # energy    6.94339188 # occ.  0.00000000
 
ion      s      p      d    tot
    1  0.075  0.042  0.013  0.130
    2  0.075  0.042  0.013  0.130
tot    0.149  0.084  0.026  0.260
 
band     6 # energy   11.20258616 # occ.  0.00000000
 
ion      s      p      d    tot
    1  0.000  0.051  0.051  0.102
    2  0.000  0.051  0.051  0.102
tot    0.000  0.102  0.103  0.205
 
band     7 # energy   11.91092563 # occ.  0.00000000
 
ion      s      p      d    tot
    1  0.000  0.014  0.058  0.072
    2  0.000  0.014  0.058  0.072
tot    0.000  0.028  0.116  0.144
 
band     8 # energy   11.99893253 # occ.  0.00000000
 
ion      s      p      d    tot
    1  0.028  0.067  0.037  0.132
    2  0.028  0.067  0.037  0.132
tot    0.056  0.133  0.074  0.264
 

 k-point    14 :    0.25000000 0.16666667 0.00000000     weight = 0.01190476

band     1 # energy   -1.75012886 # occ.  2.00000000
 
ion      s      p      d    tot
    1  0.069  0.019  0.001  0.089
    2  0.069  0.019  0.001  0.089
tot    0.138  0.038  0.002  0.178
 
band     2 # energy    3.40531686 # occ.  0.00000000
 
ion      s      p      d    tot
    1  0.000  0.061  0.010  0.071
    2  0.000  0.061  0.010  0.071
tot    0.000  0.122  0.021  0.143
 
band     3 # energy    3.63830050 # occ.  0.00000000
 
ion      s      p      d    tot
    1  0.014  0.058  0.010  0.083
    2  0.014  0.058  0.010  0.083
tot    0.028  0.117  0.021  0.166
 
band     4 # energy    4.81284639 # occ.  0.00000000
 
ion      s      p      d    tot
    1  0.063  0.030  0.013  0.106
    2  0.063  0.030  0.013  0.106
tot    0.125  0.059  0.026  0.211
 
band     5 # energy    6.20498261 # occ.  0.00000000
 
ion      s      p      d    tot
    1  0.068  0.038  0.013  0.120
    2  0.068  0.038  0.013  0.120
tot    0.137  0.077  0.026  0.239
 
band     6 # energy    9.36636971 # occ.  0.00000000
 
ion      s      p      d    tot
    1  0.000  0.047  0.040  0.087
    2  0.000  0.047  0.040  0.087
tot    0.000  0.093  0.080  0.173
 
band     7 # energy   10.37063659 # occ.  0.00000000
 
ion      s      p      d    tot
    1  0.058  0.064  0.020  0.142
    2  0.058  0.064  0.020  0.142
tot    0.116  0.128  0.041  0.284
 
band     8 # energy   11.00155076 # occ.  0.00000000
 
ion      s      p      d    tot
    1  0.000  0.026  0.053  0.078
    2  0.000  0.026  0.053  0.078
tot    0.000  0.051  0.106  0.157
 

 k-point    15 :    0.33333333 0.16666667 0.00000000     weight = 0.01190476

band     1 # energy   -0.56943618 # occ.  2.00000000
 
ion      s      p      d    tot
    1  0.059  0.027  0.002  0.089
    2  0.059  0.027  0.002  0.089
tot    0.119  0.054  0.004  0.177
 
band     2 # energy    2.46320107 # occ.  1.91320038
 
ion      s      p      d    tot
    1  0.028  0.049  0.007  0.084
    2  0.028  0.049  0.007  0.084
tot    0.056  0.098  0.014  0.168
 
band     3 # energy    4.51952213 # occ.  0.00000000
 
ion      s      p      d    tot
    1  0.000  0.059  0.015  0.074
    2  0.000  0.059  0.015  0.074
tot    0.000  0.119  0.030  0.148
 
band     4 # energy    4.90896378 # occ.  0.00000000
 
ion      s      p      d    tot
    1  0.019  0.050  0.017  0.085
    2  0.019  0.050  0.017  0.085
tot    0.038  0.099  0.033  0.171
 
band     5 # energy    6.04641624 # occ.  0.00000000
 
ion      s      p      d    tot
    1  0.079  0.040  0.008  0.127
    2  0.079  0.040  0.008  0.127
tot    0.157  0.080  0.016  0.253
 
band     6 # energy    7.53060978 # occ.  0.00000000
 
ion      s      p      d    tot
    1  0.000  0.047  0.031  0.078
    2  0.000  0.047  0.031  0.078
tot    0.000  0.094  0.062  0.156
 
band     7 # energy    8.75050073 # occ.  0.00000000
 
ion      s      p      d    tot
    1  0.100  0.046  0.010  0.156
    2  0.100  0.046  0.010  0.156
tot    0.200  0.092  0.020  0.312
 
band     8 # energy   10.58910280 # occ.  0.00000000
 
ion      s      p      d    tot
    1  0.000  0.030  0.050  0.080
    2  0.000  0.030  0.050  0.080
tot    0.000  0.059  0.101  0.160
 

 k-point    16 :    0.41666667 0.16666667 0.00000000     weight = 0.00595238

band     1 # energy    0.84714592 # occ.  2.00000000
 
ion      s      p      d    tot
    1  0.021  0.050  0.002  0.074
    2  0.021  0.050  0.002  0.074
tot    0.043  0.099  0.005  0.147
 
band     2 # energy    0.85055834 # occ.  2.00000000
 
ion      s      p      d    tot
    1  0.072  0.024  0.005  0.101
    2  0.072  0.024  0.005  0.101
tot    0.144  0.047  0.011  0.203
 
band     3 # energy    5.12829197 # occ.  0.00000000
 
ion      s      p      d    tot
    1  0.001  0.055  0.020  0.076
    2  0.001  0.055  0.020  0.076
tot    0.003  0.109  0.040  0.152
 
band     4 # energy    5.71042066 # occ.  0.00000000
 
ion      s      p      d    tot
    1  0.000  0.075  0.013  0.088
    2  0.000  0.075  0.013  0.088
tot    0.000  0.151  0.025  0.176
 
band     5 # energy    6.09357882 # occ.  0.00000000
 
ion      s      p      d    tot
    1  0.000  0.031  0.032  0.063
    2  0.000  0.031  0.032  0.063
tot    0.000  0.062  0.064  0.126
 
band     6 # energy    6.40509518 # occ.  0.00000000
 
ion      s      p      d    tot
    1  0.035  0.067  0.007  0.109
    2  0.035  0.067  0.007  0.109
tot    0.069  0.133  0.015  0.217
 
band     7 # energy    7.80203371 # occ.  0.00000000
 
ion      s      p      d    tot
    1  0.159  0.018  0.004  0.181
    2  0.159  0.018  0.004  0.181
tot    0.318  0.035  0.008  0.362
 
band     8 # energy   10.45637250 # occ.  0.00000000
 
ion      s      p      d    tot
    1  0.000  0.031  0.050  0.080
    2  0.000  0.031  0.050  0.080
tot    0.000  0.061  0.100  0.161
 

 k-point    17 :    0.25000000 0.25000000 0.00000000     weight = 0.00595238

band     1 # energy   -0.69970236 # occ.  2.00000000
 
ion      s      p      d    tot
    1  0.060  0.026  0.002  0.089
    2  0.060  0.026  0.002  0.089
tot    0.121  0.053  0.004  0.177
 
band     2 # energy    3.61195679 # occ.  0.00000000
 
ion      s      p      d    tot
    1  0.008  0.062  0.011  0.081
    2  0.008  0.062  0.011  0.081
tot    0.016  0.125  0.021  0.162
 
band     3 # energy    3.88168213 # occ.  0.00000000
 
ion      s      p      d    tot
    1  0.014  0.050  0.012  0.077
    2  0.014  0.050  0.012  0.077
tot    0.029  0.099  0.025  0.153
 
band     4 # energy    4.39663229 # occ.  0.00000000
 
ion      s      p      d    tot
    1  0.000  0.059  0.014  0.074
    2  0.000  0.059  0.014  0.074
tot    0.000  0.119  0.029  0.147
 
band     5 # energy    5.65443205 # occ.  0.00000000
 
ion      s      p      d    tot
    1  0.117  0.022  0.006  0.145
    2  0.117  0.022  0.006  0.145
tot    0.234  0.045  0.012  0.290
 
band     6 # energy    8.63263026 # occ.  0.00000000
 
ion      s      p      d    tot
    1  0.000  0.062  0.033  0.095
    2  0.000  0.062  0.033  0.095
tot    0.000  0.124  0.065  0.189
 
band     7 # energy    9.24279526 # occ.  0.00000000
 
ion      s      p      d    tot
    1  0.000  0.016  0.046  0.062
    2  0.000  0.016  0.046  0.062
tot    0.000  0.033  0.092  0.124
 
band     8 # energy    9.62245177 # occ.  0.00000000
 
ion      s      p      d    tot
    1  0.064  0.058  0.018  0.140
    2  0.064  0.058  0.018  0.140
tot    0.127  0.116  0.037  0.280
 

 k-point    18 :    0.33333333 0.25000000 0.00000000     weight = 0.01190476

band     1 # energy    0.59439406 # occ.  2.00000000
 
ion      s      p      d    tot
    1  0.049  0.035  0.004  0.088
    2  0.049  0.035  0.004  0.088
tot    0.099  0.070  0.007  0.175
 
band     2 # energy    2.11034127 # occ.  2.00000000
 
ion      s      p      d    tot
    1  0.035  0.044  0.007  0.086
    2  0.035  0.044  0.007  0.086
tot    0.070  0.089  0.013  0.172
 
band     3 # energy    3.57353814 # occ.  0.00000000
 
ion      s      p      d    tot
    1  0.019  0.052  0.011  0.082
    2  0.019  0.052  0.011  0.082
tot    0.038  0.104  0.022  0.164
 
band     4 # energy    5.62226168 # occ.  0.00000000
 
ion      s      p      d    tot
    1  0.000  0.060  0.019  0.079
    2  0.000  0.060  0.019  0.079
tot    0.000  0.120  0.037  0.157
 
band     5 # energy    6.52366904 # occ.  0.00000000
 
ion      s      p      d    tot
    1  0.053  0.057  0.008  0.118
    2  0.053  0.057  0.008  0.118
tot    0.106  0.114  0.016  0.236
 
band     6 # energy    7.14693539 # occ.  0.00000000
 
ion      s      p      d    tot
    1  0.000  0.050  0.029  0.079
    2  0.000  0.050  0.029  0.079
tot    0.000  0.100  0.057  0.157
 
band     7 # energy    8.42299814 # occ.  0.00000000
 
ion      s      p      d    tot
    1  0.119  0.034  0.009  0.163
    2  0.119  0.034  0.009  0.163
tot    0.237  0.069  0.019  0.325
 
band     8 # energy    8.74781679 # occ.  0.00000000
 
ion      s      p      d    tot
    1  0.000  0.029  0.041  0.071
    2  0.000  0.029  0.041  0.071
tot    0.000  0.059  0.083  0.141
 

 k-point    19 :    0.33333333 0.33333333 0.00000000     weight = 0.00198413

band     1 # energy    1.98486027 # occ.  2.00000000
 
ion      s      p      d    tot
    1  0.000  0.057  0.006  0.063
    2  0.000  0.057  0.006  0.063
tot    0.000  0.114  0.011  0.125
 
band     2 # energy    1.99163781 # occ.  2.00000000
 
ion      s      p      d    tot
    1  0.055  0.036  0.007  0.098
    2  0.055  0.036  0.007  0.098
tot    0.110  0.072  0.013  0.196
 
band     3 # energy    1.99164334 # occ.  2.00000000
 
ion      s      p      d    tot
    1  0.055  0.036  0.007  0.098
    2  0.055  0.036  0.007  0.098
tot    0.110  0.072  0.013  0.196
 
band     4 # energy    6.80353811 # occ.  0.00000000
 
ion      s      p      d    tot
    1  0.000  0.070  0.020  0.090
    2  0.000  0.070  0.020  0.090
tot    0.000  0.140  0.040  0.181
 
band     5 # energy    6.80353908 # occ.  0.00000000
 
ion      s      p      d    tot
    1  0.000  0.070  0.020  0.090