Job started on p-sc-2047 at Sat Apr 20 16:34:18 EDT 2024
Start: Sat Apr 20 16:34:18 EDT 2024
 running on   32 total cores
 distrk:  each k-point on    8 cores,    4 groups
 distr:  one band on    1 cores,    8 groups
 vasp.6.3.1 04May22 (build Jun 07 2022 20:23:04) complex                        
  
 POSCAR found type information on POSCAR Mg
 POSCAR found :  1 types and       2 ions
 Reading from existing POTCAR
 scaLAPACK will be used
 -----------------------------------------------------------------------------
|                                                                             |
|           W    W    AA    RRRRR   N    N  II  N    N   GGGG   !!!           |
|           W    W   A  A   R    R  NN   N  II  NN   N  G    G  !!!           |
|           W    W  A    A  R    R  N N  N  II  N N  N  G       !!!           |
|           W WW W  AAAAAA  RRRRR   N  N N  II  N  N N  G  GGG   !            |
|           WW  WW  A    A  R   R   N   NN  II  N   NN  G    G                |
|           W    W  A    A  R    R  N    N  II  N    N   GGGG   !!!           |
|                                                                             |
|     For optimal performance we recommend to set                             |
|       NCORE = 2 up to number-of-cores-per-socket                            |
|     NCORE specifies how many cores store one orbital (NPAR=cpu/NCORE).      |
|     This setting can greatly improve the performance of VASP for DFT.       |
|     The default, NCORE=1 might be grossly inefficient on modern             |
|     multi-core architectures or massively parallel machines. Do your        |
|     own testing! More info at https://www.vasp.at/wiki/index.php/NCORE      |
|     Unfortunately you need to use the default for GW and RPA                |
|     calculations (for HF NCORE is supported but not extensively tested      |
|     yet).                                                                   |
|                                                                             |
 -----------------------------------------------------------------------------

 Reading from existing POTCAR
 LDA part: xc-table for Pade appr. of Perdew
 POSCAR found type information on POSCAR Mg
 POSCAR found :  1 types and       2 ions
 POSCAR, INCAR and KPOINTS ok, starting setup
 FFT: planning ... GRIDC
 FFT: planning ... GRID_SOFT
 FFT: planning ... GRID
 WAVECAR not read
 entering main loop
       N       E                     dE             d eps       ncg     rms          rms(c)
DAV:   1    -0.984673917560E+00   -0.98467E+00   -0.11761E+03  1216   0.292E+02
DAV:   2    -0.301652685038E+01   -0.20319E+01   -0.19706E+01  1720   0.195E+01
DAV:   3    -0.302659173905E+01   -0.10065E-01   -0.10063E-01  1624   0.186E+00
DAV:   4    -0.302661846349E+01   -0.26724E-04   -0.26724E-04  1800   0.808E-02
DAV:   5    -0.302661852937E+01   -0.65886E-07   -0.65802E-07  1592   0.285E-03    0.962E-01
DAV:   6    -0.302040999224E+01    0.62085E-02   -0.53603E-04  1488   0.194E-01    0.616E-01
DAV:   7    -0.301292987154E+01    0.74801E-02   -0.20890E-03  1256   0.336E-01    0.337E-02
DAV:   8    -0.301294124053E+01   -0.11369E-04   -0.14407E-05  1960   0.241E-02    0.745E-03
DAV:   9    -0.301294002201E+01    0.12185E-05   -0.11950E-06  1368   0.571E-03    0.629E-04
DAV:  10    -0.301293981193E+01    0.21008E-06   -0.47272E-09  1280   0.455E-04    0.128E-04
DAV:  11    -0.301293979652E+01    0.15416E-07   -0.46039E-10   824   0.152E-04
   1 F= -.30129398E+01 E0= -.30106876E+01  d E =-.301294E+01
 curvature:   0.00 expect dE= 0.000E+00 dE for cont linesearch  0.000E+00
 trial: gam= 0.00000 g(F)=  0.319E-45 g(S)=  0.409E-02 ort = 0.000E+00 (trialstep = 0.100E+01)
 search vector abs. value=  0.409E-02
 bond charge predicted
       N       E                     dE             d eps       ncg     rms          rms(c)
DAV:   1    -0.301566154250E+01   -0.27217E-02   -0.10348E-02  1544   0.468E-01    0.332E-02
DAV:   2    -0.301564297158E+01    0.18571E-04   -0.53123E-05  1336   0.439E-02    0.212E-02
DAV:   3    -0.301562385827E+01    0.19113E-04   -0.67138E-06  1680   0.115E-02    0.958E-04
DAV:   4    -0.301562396106E+01   -0.10280E-06   -0.71109E-08  1224   0.167E-03    0.535E-04
DAV:   5    -0.301562409385E+01   -0.13279E-06   -0.15069E-08   808   0.653E-04    0.137E-05
DAV:   6    -0.301562408127E+01    0.12582E-07   -0.30645E-10   672   0.106E-04
   2 F= -.30156241E+01 E0= -.30135823E+01  d E =-.268428E-02
 trial-energy change:   -0.002684  1 .order   -0.002705   -0.004089   -0.001321
 step:   1.5125(harm=  1.4772)  dis= 0.00000  next Energy=    -3.015960 (dE=-0.302E-02)
 bond charge predicted
       N       E                     dE             d eps       ncg     rms          rms(c)
DAV:   1    -0.301595129762E+01   -0.32720E-03   -0.27260E-03  1536   0.239E-01    0.170E-02
DAV:   2    -0.301594599119E+01    0.53064E-05   -0.14123E-05  1320   0.226E-02    0.109E-02
DAV:   3    -0.301594011510E+01    0.58761E-05   -0.17873E-06  1672   0.597E-03    0.490E-04
DAV:   4    -0.301594017605E+01   -0.60950E-07   -0.18429E-08   936   0.855E-04
   3 F= -.30159402E+01 E0= -.30140264E+01  d E =-.300038E-02
 curvature:  -0.73 expect dE=-0.195E-03 dE for cont linesearch -0.664E-06
 ZBRENT: interpolating
 opt :   1.4900  next Energy=    -3.015941 (dE=-0.300E-02)
 bond charge predicted
       N       E                     dE             d eps       ncg     rms          rms(c)
DAV:   1    -0.301594102345E+01   -0.90835E-06   -0.54831E-06  1536   0.108E-02    0.747E-04
DAV:   2    -0.301594105585E+01   -0.32402E-07   -0.27572E-08  1064   0.100E-03
   4 F= -.30159411E+01 E0= -.30140217E+01  d E =-.300126E-02
 curvature:  -0.76 expect dE=-0.196E-03 dE for cont linesearch -0.461E-08
 trial: gam= 0.06450 g(F)=  0.970E-47 g(S)=  0.259E-03 ort =-0.499E-05 (trialstep = 0.110E+01)
 search vector abs. value=  0.275E-03
 bond charge predicted
       N       E                     dE             d eps       ncg     rms          rms(c)
DAV:   1    -0.301615355342E+01   -0.21253E-03   -0.73457E-04  1584   0.111E-01    0.951E-03
DAV:   2    -0.301615309725E+01    0.45617E-06   -0.30276E-06  1320   0.110E-02    0.602E-03
DAV:   3    -0.301615280849E+01    0.28876E-06   -0.70946E-07  1592   0.323E-03    0.112E-04
DAV:   4    -0.301615279701E+01    0.11474E-07   -0.81236E-09   808   0.582E-04
   5 F= -.30161528E+01 E0= -.30143901E+01  d E =-.211741E-03
 trial-energy change:   -0.000212  1 .order   -0.000210   -0.000284   -0.000137
 step:   2.0125(harm=  2.1176)  dis= 0.00000  next Energy=    -3.016211 (dE=-0.270E-03)
 bond charge predicted
       N       E                     dE             d eps       ncg     rms          rms(c)
DAV:   1    -0.301621539183E+01   -0.62583E-04   -0.50570E-04  1592   0.926E-02    0.795E-03
DAV:   2    -0.301621511339E+01    0.27843E-06   -0.20701E-06  1320   0.912E-03    0.503E-03
DAV:   3    -0.301621497330E+01    0.14009E-06   -0.48680E-07  1592   0.269E-03    0.947E-05
DAV:   4    -0.301621496264E+01    0.10666E-07   -0.55774E-09   768   0.482E-04
   6 F= -.30162150E+01 E0= -.30145551E+01  d E =-.273907E-03
 curvature:  -1.12 expect dE=-0.112E-05 dE for cont linesearch -0.451E-06
 trial: gam=-0.04637 g(F)=  0.145E-47 g(S)=  0.100E-05 ort = 0.106E-04 (trialstep = 0.128E+01)
 search vector abs. value=  0.614E-06
 reached required accuracy - stopping structural energy minimisation
End: Sat Apr 20 16:34:26 EDT 2024
