<?xml version="1.0" encoding="ISO-8859-1"?>
<modeling>
 <generator>
  <i name="program" type="string">vasp </i>
  <i name="version" type="string">6.3.1  </i>
  <i name="subversion" type="string">04May22 (build Jun 07 2022 20:23:04) complex                          parallel </i>
  <i name="platform" type="string">LinuxIFC </i>
  <i name="date" type="string">2024 04 20 </i>
  <i name="time" type="string">16:34:20 </i>
 </generator>
 <incar>
  <i type="string" name="PREC">Normal</i>
  <i type="string" name="ALGO">Normal</i>
  <i type="int" name="NELM">   100</i>
  <i type="int" name="IBRION">     2</i>
  <i name="EDIFF">      0.00000010</i>
  <i name="EDIFFG">     -0.00500000</i>
  <i type="int" name="NSW">    20</i>
  <i type="int" name="ISIF">     3</i>
  <i name="ENCUT">    400.00000000</i>
  <i type="logical" name="LREAL"> F  </i>
  <i type="int" name="ISMEAR">     0</i>
  <i name="SIGMA">      0.10000000</i>
  <i type="logical" name="LWAVE"> F  </i>
  <i type="logical" name="LCHARG"> F  </i>
  <i type="int" name="LORBIT">    10</i>
  <i type="logical" name="LASPH"> T  </i>
 </incar>
 <primitive_cell>
  <structure name="primitive_cell" >
   <crystal>
    <varray name="basis" >
     <v>       3.17202329       0.00000000       0.00000000 </v>
     <v>      -1.58601164       2.74705275       0.00000000 </v>
     <v>       0.00000000       0.00000000       5.14120490 </v>
    </varray>
    <i name="volume">     44.79899571 </i>
    <varray name="rec_basis" >
     <v>       0.31525620       0.18201325       0.00000000 </v>
     <v>       0.00000000       0.36402650       0.00000000 </v>
     <v>       0.00000000       0.00000000       0.19450693 </v>
    </varray>
   </crystal>
   <varray name="positions" >
    <v>       0.33333333       0.66666667       0.25000000 </v>
    <v>       0.66666667       0.33333333       0.75000000 </v>
   </varray>
  </structure>
  <varray name="primitive_index" >
   <v type="int" >        1 </v>
   <v type="int" >        2 </v>
  </varray>
 </primitive_cell>
 <kpoints>
  <generation param="Gamma">
   <v type="int" name="divisions">      12       12        7 </v>
   <v name="usershift">      0.00000000       0.00000000       0.00000000 </v>
   <v name="genvec1">      0.08333333      -0.00000000       0.00000000 </v>
   <v name="genvec2">      0.00000000       0.08333333       0.00000000 </v>
   <v name="genvec3">      0.00000000       0.00000000       0.14285714 </v>
   <v name="shift">      0.00000000       0.00000000       0.00000000 </v>
  </generation>
  <varray name="kpointlist" >
   <v>       0.00000000       0.00000000       0.00000000 </v>
   <v>       0.08333333      -0.00000000       0.00000000 </v>
   <v>       0.16666667      -0.00000000       0.00000000 </v>
   <v>       0.25000000       0.00000000       0.00000000 </v>
   <v>       0.33333333       0.00000000       0.00000000 </v>
   <v>       0.41666667      -0.00000000       0.00000000 </v>
   <v>       0.50000000       0.00000000       0.00000000 </v>
   <v>       0.08333333       0.08333333       0.00000000 </v>
   <v>       0.16666667       0.08333333       0.00000000 </v>
   <v>       0.25000000       0.08333333       0.00000000 </v>
   <v>       0.33333333       0.08333333       0.00000000 </v>
   <v>       0.41666667       0.08333333       0.00000000 </v>
   <v>       0.16666667       0.16666667       0.00000000 </v>
   <v>       0.25000000       0.16666667       0.00000000 </v>
   <v>       0.33333333       0.16666667       0.00000000 </v>
   <v>       0.41666667       0.16666667       0.00000000 </v>
   <v>       0.25000000       0.25000000       0.00000000 </v>
   <v>       0.33333333       0.25000000       0.00000000 </v>
   <v>       0.33333333       0.33333333       0.00000000 </v>
   <v>       0.00000000       0.00000000       0.14285714 </v>
   <v>       0.08333333      -0.00000000       0.14285714 </v>
   <v>       0.16666667      -0.00000000       0.14285714 </v>
   <v>       0.25000000       0.00000000       0.14285714 </v>
   <v>       0.33333333       0.00000000       0.14285714 </v>
   <v>       0.41666667      -0.00000000       0.14285714 </v>
   <v>       0.50000000       0.00000000       0.14285714 </v>
   <v>       0.08333333       0.08333333       0.14285714 </v>
   <v>       0.16666667       0.08333333       0.14285714 </v>
   <v>       0.25000000       0.08333333       0.14285714 </v>
   <v>       0.33333333       0.08333333       0.14285714 </v>
   <v>       0.41666667       0.08333333       0.14285714 </v>
   <v>       0.16666667       0.16666667       0.14285714 </v>
   <v>       0.25000000       0.16666667       0.14285714 </v>
   <v>       0.33333333       0.16666667       0.14285714 </v>
   <v>       0.41666667       0.16666667       0.14285714 </v>
   <v>       0.25000000       0.25000000       0.14285714 </v>
   <v>       0.33333333       0.25000000       0.14285714 </v>
   <v>       0.33333333       0.33333333       0.14285714 </v>
   <v>       0.00000000       0.00000000       0.28571429 </v>
   <v>       0.08333333      -0.00000000       0.28571429 </v>
   <v>       0.16666667      -0.00000000       0.28571429 </v>
   <v>       0.25000000       0.00000000       0.28571429 </v>
   <v>       0.33333333       0.00000000       0.28571429 </v>
   <v>       0.41666667      -0.00000000       0.28571429 </v>
   <v>       0.50000000       0.00000000       0.28571429 </v>
   <v>       0.08333333       0.08333333       0.28571429 </v>
   <v>       0.16666667       0.08333333       0.28571429 </v>
   <v>       0.25000000       0.08333333       0.28571429 </v>
   <v>       0.33333333       0.08333333       0.28571429 </v>
   <v>       0.41666667       0.08333333       0.28571429 </v>
   <v>       0.16666667       0.16666667       0.28571429 </v>
   <v>       0.25000000       0.16666667       0.28571429 </v>
   <v>       0.33333333       0.16666667       0.28571429 </v>
   <v>       0.41666667       0.16666667       0.28571429 </v>
   <v>       0.25000000       0.25000000       0.28571429 </v>
   <v>       0.33333333       0.25000000       0.28571429 </v>
   <v>       0.33333333       0.33333333       0.28571429 </v>
   <v>       0.00000000       0.00000000       0.42857143 </v>
   <v>       0.08333333      -0.00000000       0.42857143 </v>
   <v>       0.16666667      -0.00000000       0.42857143 </v>
   <v>       0.25000000       0.00000000       0.42857143 </v>
   <v>       0.33333333       0.00000000       0.42857143 </v>
   <v>       0.41666667      -0.00000000       0.42857143 </v>
   <v>       0.50000000       0.00000000       0.42857143 </v>
   <v>       0.08333333       0.08333333       0.42857143 </v>
   <v>       0.16666667       0.08333333       0.42857143 </v>
   <v>       0.25000000       0.08333333       0.42857143 </v>
   <v>       0.33333333       0.08333333       0.42857143 </v>
   <v>       0.41666667       0.08333333       0.42857143 </v>
   <v>       0.16666667       0.16666667       0.42857143 </v>
   <v>       0.25000000       0.16666667       0.42857143 </v>
   <v>       0.33333333       0.16666667       0.42857143 </v>
   <v>       0.41666667       0.16666667       0.42857143 </v>
   <v>       0.25000000       0.25000000       0.42857143 </v>
   <v>       0.33333333       0.25000000       0.42857143 </v>
   <v>       0.33333333       0.33333333       0.42857143 </v>
  </varray>
  <varray name="weights" >
   <v>       0.00099206 </v>
   <v>       0.00595238 </v>
   <v>       0.00595238 </v>
   <v>       0.00595238 </v>
   <v>       0.00595238 </v>
   <v>       0.00595238 </v>
   <v>       0.00297619 </v>
   <v>       0.00595238 </v>
   <v>       0.01190476 </v>
   <v>       0.01190476 </v>
   <v>       0.01190476 </v>
   <v>       0.01190476 </v>
   <v>       0.00595238 </v>
   <v>       0.01190476 </v>
   <v>       0.01190476 </v>
   <v>       0.00595238 </v>
   <v>       0.00595238 </v>
   <v>       0.01190476 </v>
   <v>       0.00198413 </v>
   <v>       0.00198413 </v>
   <v>       0.01190476 </v>
   <v>       0.01190476 </v>
   <v>       0.01190476 </v>
   <v>       0.01190476 </v>
   <v>       0.01190476 </v>
   <v>       0.00595238 </v>
   <v>       0.01190476 </v>
   <v>       0.02380952 </v>
   <v>       0.02380952 </v>
   <v>       0.02380952 </v>
   <v>       0.02380952 </v>
   <v>       0.01190476 </v>
   <v>       0.02380952 </v>
   <v>       0.02380952 </v>
   <v>       0.01190476 </v>
   <v>       0.01190476 </v>
   <v>       0.02380952 </v>
   <v>       0.00396825 </v>
   <v>       0.00198413 </v>
   <v>       0.01190476 </v>
   <v>       0.01190476 </v>
   <v>       0.01190476 </v>
   <v>       0.01190476 </v>
   <v>       0.01190476 </v>
   <v>       0.00595238 </v>
   <v>       0.01190476 </v>
   <v>       0.02380952 </v>
   <v>       0.02380952 </v>
   <v>       0.02380952 </v>
   <v>       0.02380952 </v>
   <v>       0.01190476 </v>
   <v>       0.02380952 </v>
   <v>       0.02380952 </v>
   <v>       0.01190476 </v>
   <v>       0.01190476 </v>
   <v>       0.02380952 </v>
   <v>       0.00396825 </v>
   <v>       0.00198413 </v>
   <v>       0.01190476 </v>
   <v>       0.01190476 </v>
   <v>       0.01190476 </v>
   <v>       0.01190476 </v>
   <v>       0.01190476 </v>
   <v>       0.00595238 </v>
   <v>       0.01190476 </v>
   <v>       0.02380952 </v>
   <v>       0.02380952 </v>
   <v>       0.02380952 </v>
   <v>       0.02380952 </v>
   <v>       0.01190476 </v>
   <v>       0.02380952 </v>
   <v>       0.02380952 </v>
   <v>       0.01190476 </v>
   <v>       0.01190476 </v>
   <v>       0.02380952 </v>
   <v>       0.00396825 </v>
  </varray>
 </kpoints>
 <parameters>
  <separator name="general" >
   <i type="string" name="SYSTEM">unknown system</i>
   <i type="logical" name="LCOMPAT"> F  </i>
  </separator>
  <separator name="electronic" >
   <i type="string" name="PREC">normal</i>
   <i name="ENMAX">    400.00000000</i>
   <i name="ENAUG">    454.73400000</i>
   <i name="EDIFF">      0.00000010</i>
   <i type="int" name="IALGO">    38</i>
   <i type="int" name="IWAVPR">    11</i>
   <i type="int" name="NBANDS">     8</i>
   <i type="int" name="NBANDSLOW">    -1</i>
   <i type="int" name="NBANDSHIGH">    -1</i>
   <i name="NELECT">      4.00000000</i>
   <i type="int" name="TURBO">     0</i>
   <i type="int" name="IRESTART">     0</i>
   <i type="int" name="NREBOOT">     0</i>
   <i type="int" name="NMIN">     0</i>
   <i name="EREF">      0.00000000</i>
   <separator name="electronic smearing" >
    <i type="int" name="ISMEAR">     0</i>
    <i name="SIGMA">      0.10000000</i>
    <i name="KSPACING">      0.50000000</i>
    <i type="logical" name="KGAMMA"> T  </i>
    <i type="logical" name="KBLOWUP"> T  </i>
   </separator>
   <separator name="electronic projectors" >
    <i type="logical" name="LREAL"> F  </i>
    <v name="ROPT">      0.00000000</v>
    <i type="int" name="LMAXPAW">  -100</i>
    <i type="int" name="LMAXMIX">     2</i>
    <i type="logical" name="NLSPLINE"> F  </i>
   </separator>
   <separator name="electronic startup" >
    <i type="int" name="ISTART">     0</i>
    <i type="int" name="ICHARG">     2</i>
    <i type="int" name="INIWAV">     1</i>
   </separator>
   <separator name="electronic spin" >
    <i type="int" name="ISPIN">     1</i>
    <i type="logical" name="LNONCOLLINEAR"> F  </i>
    <v name="MAGMOM">      1.00000000      1.00000000</v>
    <i name="NUPDOWN">     -1.00000000</i>
    <i type="logical" name="LSORBIT"> F  </i>
    <v name="SAXIS">      0.00000000      0.00000000      1.00000000</v>
    <i type="logical" name="LSPIRAL"> F  </i>
    <v name="QSPIRAL">      0.00000000      0.00000000      0.00000000</v>
    <i type="logical" name="LZEROZ"> F  </i>
   </separator>
   <separator name="electronic exchange-correlation" >
    <i type="logical" name="LASPH"> T  </i>
    <i type="logical" name="LMETAGGA"> F  </i>
   </separator>
   <separator name="electronic convergence" >
    <i type="int" name="NELM">   100</i>
    <i type="int" name="NELMDL">    -5</i>
    <i type="int" name="NELMIN">     2</i>
    <i name="ENINI">    400.00000000</i>
    <separator name="electronic convergence detail" >
     <i type="logical" name="LDIAG"> T  </i>
     <i type="logical" name="LSUBROT"> F  </i>
     <i name="WEIMIN">      0.00100000</i>
     <i name="EBREAK">      0.00000000</i>
     <i name="DEPER">      0.30000000</i>
     <i type="int" name="NRMM">     4</i>
     <i name="TIME">      0.40000000</i>
    </separator>
   </separator>
   <separator name="electronic mixer" >
    <i name="AMIX">      0.40000000</i>
    <i name="BMIX">      1.00000000</i>
    <i name="AMIN">      0.10000000</i>
    <i name="AMIX_MAG">      1.60000000</i>
    <i name="BMIX_MAG">      1.00000000</i>
    <separator name="electronic mixer details" >
     <i type="int" name="IMIX">     4</i>
     <i type="logical" name="MIXFIRST"> F  </i>
     <i type="int" name="MAXMIX">   -45</i>
     <i name="WC">    100.00000000</i>
     <i type="int" name="INIMIX">     1</i>
     <i type="int" name="MIXPRE">     1</i>
     <i type="int" name="MREMOVE">     5</i>
    </separator>
   </separator>
   <separator name="electronic dipolcorrection" >
    <i type="logical" name="LDIPOL"> F  </i>
    <i type="logical" name="LMONO"> F  </i>
    <i type="int" name="IDIPOL">     0</i>
    <i name="EPSILON">      1.00000000</i>
    <v name="DIPOL">   -100.00000000   -100.00000000   -100.00000000</v>
    <i name="EFIELD">      0.00000000</i>
   </separator>
  </separator>
  <separator name="grids" >
   <i type="int" name="NGX">    16</i>
   <i type="int" name="NGY">    16</i>
   <i type="int" name="NGZ">    28</i>
   <i type="int" name="NGXF">    32</i>
   <i type="int" name="NGYF">    32</i>
   <i type="int" name="NGZF">    56</i>
   <i type="logical" name="ADDGRID"> F  </i>
  </separator>
  <separator name="ionic" >
   <i type="int" name="NSW">    20</i>
   <i type="int" name="IBRION">     2</i>
   <i type="int" name="MDALGO">     0</i>
   <i type="int" name="ISIF">     3</i>
   <i name="PSTRESS">      0.00000000</i>
   <i name="EDIFFG">     -0.00500000</i>
   <i type="int" name="NFREE">     1</i>
   <i name="POTIM">      0.50000000</i>
   <i name="SMASS">     -3.00000000</i>
   <i name="SCALEE">      1.00000000</i>
  </separator>
  <separator name="ionic md" >
   <i name="TEBEG">      0.00010000</i>
   <i name="TEEND">      0.00010000</i>
   <i type="int" name="NBLOCK">     1</i>
   <i type="int" name="KBLOCK">    20</i>
   <i type="int" name="NPACO">   256</i>
   <i name="APACO">     10.00000000</i>
  </separator>
  <separator name="symmetry" >
   <i type="int" name="ISYM">     2</i>
   <i name="SYMPREC">      0.00001000</i>
  </separator>
  <separator name="dos" >
   <i type="int" name="LORBIT">    10</i>
   <v name="RWIGS">     -1.00000000</v>
   <i type="int" name="NEDOS">   301</i>
   <i name="EMIN">     10.00000000</i>
   <i name="EMAX">    -10.00000000</i>
   <i name="EFERMI">      0.00000000</i>
  </separator>
  <separator name="writing" >
   <i type="int" name="NWRITE">     2</i>
   <i type="logical" name="LWAVE"> F  </i>
   <i type="logical" name="LDOWNSAMPLE"> F  </i>
   <i type="logical" name="LCHARG"> F  </i>
   <i type="logical" name="LPARD"> F  </i>
   <i type="logical" name="LVTOT"> F  </i>
   <i type="logical" name="LVHAR"> F  </i>
   <i type="logical" name="LELF"> F  </i>
   <i type="logical" name="LOPTICS"> F  </i>
   <v name="STM">      0.00000000      0.00000000      0.00000000      0.00000000      0.00000000      0.00000000      0.00000000</v>
  </separator>
  <separator name="performance" >
   <i type="int" name="NPAR">     8</i>
   <i type="int" name="NSIM">     4</i>
   <i type="int" name="NBLK">    -1</i>
   <i type="logical" name="LPLANE"> T  </i>
   <i type="logical" name="LSCALAPACK"> T  </i>
   <i type="logical" name="LSCAAWARE"> F  </i>
   <i type="logical" name="LSCALU"> F  </i>
   <i type="logical" name="LASYNC"> F  </i>
   <i type="logical" name="LORBITALREAL"> F  </i>
  </separator>
  <separator name="miscellaneous" >
   <i type="int" name="IDIOT">     3</i>
   <i type="int" name="PHON_NSTRUCT">    -1</i>
   <i type="logical" name="LMUSIC"> F  </i>
   <v name="POMASS">     24.30500000</v>
   <v name="DARWINR">      0.00000000</v>
   <v name="DARWINV">      1.00000000</v>
   <i type="logical" name="LCORR"> T  </i>
  </separator>
  <i type="logical" name="GGA_COMPAT"> T  </i>
  <i type="logical" name="LBERRY"> F  </i>
  <i type="int" name="ICORELEVEL">     0</i>
  <i type="logical" name="LDAU"> F  </i>
  <i type="int" name="I_CONSTRAINED_M">     0</i>
  <separator name="electronic exchange-correlation" >
   <i type="string" name="GGA">--</i>
   <i type="int" name="VOSKOWN">     0</i>
   <i type="logical" name="LHFCALC"> F  </i>
   <i type="string" name="PRECFOCK"></i>
   <i type="logical" name="LSYMGRAD"> F  </i>
   <i type="logical" name="LHFONE"> F  </i>
   <i type="logical" name="LRHFCALC"> F  </i>
   <i type="logical" name="LTHOMAS"> F  </i>
   <i type="logical" name="LMODELHF"> F  </i>
   <i type="logical" name="LFOCKACE"> F  </i>
   <i name="ENCUT4O">     -1.00000000</i>
   <i type="int" name="EXXOEP">     0</i>
   <i type="int" name="FOURORBIT">     0</i>
   <i name="AEXX">      0.00000000</i>
   <i name="HFALPHA">      0.00000000</i>
   <i name="MCALPHA">      0.00000000</i>
   <i name="ALDAX">      1.00000000</i>
   <i name="AGGAX">      1.00000000</i>
   <i name="ALDAC">      1.00000000</i>
   <i name="AGGAC">      1.00000000</i>
   <i type="int" name="NKREDX">     1</i>
   <i type="int" name="NKREDY">     1</i>
   <i type="int" name="NKREDZ">     1</i>
   <i type="logical" name="SHIFTRED"> F  </i>
   <i type="logical" name="ODDONLY"> F  </i>
   <i type="logical" name="EVENONLY"> F  </i>
   <i type="int" name="LMAXFOCK">     0</i>
   <i type="int" name="NMAXFOCKAE">     0</i>
   <i type="logical" name="LFOCKAEDFT"> F  </i>
   <i name="HFSCREEN">      0.00000000</i>
   <i name="HFSCREENC">      0.00000000</i>
   <i type="int" name="NBANDSGWLOW">     0</i>
  </separator>
  <separator name="vdW DFT" >
   <i type="logical" name="LUSE_VDW"> F  </i>
   <i name="Zab_VDW">     -0.84910000</i>
   <i name="PARAM1">      0.12340000</i>
   <i name="PARAM2">      1.00000000</i>
   <i name="PARAM3">      0.00000000</i>
  </separator>
  <separator name="model GW" >
   <i type="int" name="MODEL_GW">     0</i>
   <i name="MODEL_EPS0">     13.43969871</i>
   <i name="MODEL_ALPHA">      1.00000000</i>
  </separator>
  <separator name="linear response parameters" >
   <i type="logical" name="LEPSILON"> F  </i>
   <i type="logical" name="LRPA"> F  </i>
   <i type="logical" name="LNABLA"> F  </i>
   <i type="logical" name="LVEL"> F  </i>
   <i name="CSHIFT">      0.10000000</i>
   <i name="OMEGAMAX">     -1.00000000</i>
   <i name="DEG_THRESHOLD">      0.00200000</i>
   <i name="RTIME">     -0.10000000</i>
   <i name="WPLASMAI">      0.00000000</i>
   <v name="DFIELD">      0.00000000      0.00000000      0.00000000</v>
   <v name="WPLASMA">      0.00000000      0.00000000      0.00000000      0.00000000      0.00000000      0.00000000      0.00000000      0.00000000      0.00000000</v>
  </separator>
  <separator name="orbital magnetization" >
   <i type="logical" name="NUCIND"> F  </i>
   <v name="MAGPOS">      0.00000000      0.00000000      0.00000000</v>
   <i type="logical" name="LNICSALL"> T  </i>
   <i type="logical" name="ORBITALMAG"> F  </i>
   <i type="logical" name="LMAGBLOCH"> F  </i>
   <i type="logical" name="LCHIMAG"> F  </i>
   <i type="logical" name="LGAUGE"> T  </i>
   <i type="int" name="MAGATOM">     0</i>
   <v name="MAGDIPOL">      0.00000000      0.00000000      0.00000000</v>
   <v name="AVECCONST">      0.00000000      0.00000000      0.00000000</v>
  </separator>
  <separator name="response functions" >
   <i type="logical" name="LFINITE_TEMPERATURE"> F  </i>
   <i type="logical" name="LADDER"> F  </i>
   <i type="logical" name="LRPAFORCE"> F  </i>
   <i type="logical" name="LFXC"> F  </i>
   <i type="logical" name="LHARTREE"> T  </i>
   <i type="int" name="IBSE">     0</i>
   <v type="int" name="KPOINT">    -1     0     0     0</v>
   <i type="logical" name="LTCTC"> F  </i>
   <i type="logical" name="LTCTE"> F  </i>
   <i type="logical" name="LTETE"> F  </i>
   <i type="logical" name="LTRIPLET"> F  </i>
   <i type="logical" name="LFXCEPS"> F  </i>
   <i type="logical" name="LFXHEG"> F  </i>
   <i type="int" name="NATURALO">     2</i>
   <i type="logical" name="LHOLEGF"> F  </i>
   <i type="logical" name="L2ORDER"> F  </i>
   <i type="logical" name="LDMP1"> F  </i>
   <i type="logical" name="LMP2LT"> F  </i>
   <i type="logical" name="LSMP2LT"> F  </i>
   <i type="logical" name="LGWLF"> F  </i>
   <i name="ENCUTGW">     -2.00000000</i>
   <i name="ENCUTGWSOFT">     -2.00000000</i>
   <i name="ENCUTLF">     -1.00000000</i>
   <i type="logical" name="LESF_SPLINES"> F  </i>
   <i type="int" name="LMAXMP2">    -1</i>
   <i name="SCISSOR">      0.00000000</i>
   <i type="int" name="NOMEGA">     0</i>
   <i type="int" name="NOMEGAR">     0</i>
   <i type="int" name="NBANDSGW">    -1</i>
   <i type="int" name="NBANDSO">    -1</i>
   <i type="int" name="NBANDSV">    -1</i>
   <i type="int" name="NELMGW">     1</i>
   <i type="int" name="NELMHF">     1</i>
   <i type="int" name="DIM">     3</i>
   <i type="int" name="IESPILON">     4</i>
   <i type="int" name="ANTIRES">     0</i>
   <i name="OMEGAMAX">    -30.00000000</i>
   <i name="OMEGAMIN">    -30.00000000</i>
   <i name="OMEGATL">   -200.00000000</i>
   <i type="int" name="OMEGAGRID">     0</i>
   <i name="CSHIFT">     -0.10000000</i>
   <i type="logical" name="LSELFENERGY"> F  </i>
   <i type="logical" name="LSPECTRAL"> F  </i>
   <i type="logical" name="LSPECTRALGW"> F  </i>
   <i type="logical" name="LSINGLES"> F  </i>
   <i type="logical" name="LFERMIGW"> F  </i>
   <i type="logical" name="ODDONLYGW"> F  </i>
   <i type="logical" name="EVENONLYGW"> F  </i>
   <i type="int" name="NKREDLFX">     1</i>
   <i type="int" name="NKREDLFY">     1</i>
   <i type="int" name="NKREDLFZ">     1</i>
   <i type="int" name="MAXMEM">  2800</i>
   <i type="int" name="TELESCOPE">     0</i>
   <i type="int" name="NTAUPAR">    -1</i>
   <i type="int" name="NOMEGAPAR">    -1</i>
   <i name="DAMP_NEWTON">      0.80000001</i>
   <i name="LAMBDA">      1.00000000</i>
  </separator>
  <separator name="External order field" >
   <i name="OFIELD_KAPPA">      0.00000000</i>
   <v name="OFIELD_K">      0.00000000      0.00000000      0.00000000</v>
   <i name="OFIELD_Q6_NEAR">      0.00000000</i>
   <i name="OFIELD_Q6_FAR">      0.00000000</i>
   <i name="OFIELD_A">      0.00000000</i>
  </separator>
  <separator name="optional k-points parameters" >
   <i type="int" name="KPOINTS_OPT_MODE">     1</i>
   <i type="logical" name="LKPOINTS_OPT"> F  </i>
  </separator>
 </parameters>
 <atominfo>
  <atoms>       2 </atoms>
  <types>       1 </types>
  <array name="atoms" >
   <dimension dim="1">ion</dimension>
   <field type="string">element</field>
   <field type="int">atomtype</field>
   <set>
    <rc><c>Mg</c><c>   1</c></rc>
    <rc><c>Mg</c><c>   1</c></rc>
   </set>
  </array>
  <array name="atomtypes" >
   <dimension dim="1">type</dimension>
   <field type="int">atomspertype</field>
   <field type="string">element</field>
   <field>mass</field>
   <field>valence</field>
   <field type="string">pseudopotential</field>
   <set>
    <rc><c>   2</c><c>Mg</c><c>     24.30500000</c><c>      2.00000000</c><c>  PAW_PBE Mg 13Apr2007                  </c></rc>
   </set>
  </array>
 </atominfo>
 <structure name="initialpos" >
  <crystal>
   <varray name="basis" >
    <v>       3.17202329       0.00000000       0.00000000 </v>
    <v>      -1.58601164       2.74705275       0.00000000 </v>
    <v>       0.00000000       0.00000000       5.14120490 </v>
   </varray>
   <i name="volume">     44.79899571 </i>
   <varray name="rec_basis" >
    <v>       0.31525620       0.18201325       0.00000000 </v>
    <v>       0.00000000       0.36402650       0.00000000 </v>
    <v>       0.00000000       0.00000000       0.19450693 </v>
   </varray>
  </crystal>
  <varray name="positions" >
   <v>       0.33333333       0.66666667       0.25000000 </v>
   <v>       0.66666667       0.33333333       0.75000000 </v>
  </varray>
 </structure>
 <calculation>
  <scstep>
   <time name="dav">    0.02    0.02</time>
   <time name="total">    0.13    0.13</time>
   <energy>
    <i name="alphaZ">      4.01845705 </i>
    <i name="ewald">    -59.01388070 </i>
    <i name="hartreedc">     -0.05633182 </i>
    <i name="XCdc">    -97.82940657 </i>
    <i name="pawpsdc">    130.61339054 </i>
    <i name="pawaedc">    -26.88791747 </i>
    <i name="eentropy">     -0.00345582 </i>
    <i name="bandstr">      2.10092396 </i>
    <i name="atom">     46.07354693 </i>
    <i name="e_fr_energy">     -0.98467392 </i>
    <i name="e_wo_entrp">     -0.98121810 </i>
    <i name="e_0_energy">     -0.98294601 </i>
   </energy>
  </scstep>
  <scstep>
   <time name="dav">    0.03    0.03</time>
   <time name="total">    0.03    0.03</time>
   <energy>
    <i name="e_fr_energy">     -3.01652685 </i>
    <i name="e_wo_entrp">     -3.01201881 </i>
    <i name="e_0_energy">     -3.01427283 </i>
   </energy>
  </scstep>
  <scstep>
   <time name="dav">    0.03    0.03</time>
   <time name="total">    0.03    0.03</time>
   <energy>
    <i name="e_fr_energy">     -3.02659174 </i>
    <i name="e_wo_entrp">     -3.02208519 </i>
    <i name="e_0_energy">     -3.02433846 </i>
   </energy>
  </scstep>
  <scstep>
   <time name="dav">    0.03    0.03</time>
   <time name="total">    0.03    0.03</time>
   <energy>
    <i name="e_fr_energy">     -3.02661846 </i>
    <i name="e_wo_entrp">     -3.02211192 </i>
    <i name="e_0_energy">     -3.02436519 </i>
   </energy>
  </scstep>
  <scstep>
   <time name="dav">    0.03    0.03</time>
   <time name="total">    0.03    0.03</time>
   <energy>
    <i name="e_fr_energy">     -3.02661853 </i>
    <i name="e_wo_entrp">     -3.02211199 </i>
    <i name="e_0_energy">     -3.02436526 </i>
   </energy>
  </scstep>
  <scstep>
   <time name="dav">    0.02    0.02</time>
   <time name="total">    0.13    0.13</time>
   <energy>
    <i name="e_fr_energy">     -3.02040999 </i>
    <i name="e_wo_entrp">     -3.01591229 </i>
    <i name="e_0_energy">     -3.01816114 </i>
   </energy>
  </scstep>
  <scstep>
   <time name="dav">    0.02    0.02</time>
   <time name="total">    0.13    0.13</time>
   <energy>
    <i name="e_fr_energy">     -3.01292987 </i>
    <i name="e_wo_entrp">     -3.00842779 </i>
    <i name="e_0_energy">     -3.01067883 </i>
   </energy>
  </scstep>
  <scstep>
   <time name="dav">    0.03    0.03</time>
   <time name="total">    0.14    0.14</time>
   <energy>
    <i name="e_fr_energy">     -3.01294124 </i>
    <i name="e_wo_entrp">     -3.00843759 </i>
    <i name="e_0_energy">     -3.01068941 </i>
   </energy>
  </scstep>
  <scstep>
   <time name="dav">    0.02    0.02</time>
   <time name="total">    0.13    0.13</time>
   <energy>
    <i name="e_fr_energy">     -3.01294002 </i>
    <i name="e_wo_entrp">     -3.00843567 </i>
    <i name="e_0_energy">     -3.01068785 </i>
   </energy>
  </scstep>
  <scstep>
   <time name="dav">    0.02    0.02</time>
   <time name="total">    0.13    0.13</time>
   <energy>
    <i name="e_fr_energy">     -3.01293981 </i>
    <i name="e_wo_entrp">     -3.00843544 </i>
    <i name="e_0_energy">     -3.01068762 </i>
   </energy>
  </scstep>
  <scstep>
   <time name="dav">    0.02    0.02</time>
   <time name="total">    0.12    0.12</time>
   <energy>
    <i name="alphaZ">      4.01845705 </i>
    <i name="ewald">    -59.01388070 </i>
    <i name="hartreedc">     -0.12697395 </i>
    <i name="XCdc">    -97.58848032 </i>
    <i name="pawpsdc">    118.85938539 </i>
    <i name="pawaedc">    -15.14736401 </i>
    <i name="eentropy">     -0.00450439 </i>
    <i name="bandstr">     -0.08312580 </i>
    <i name="atom">     46.07354693 </i>
    <i name="e_fr_energy">     -3.01293980 </i>
    <i name="e_wo_entrp">     -3.00843540 </i>
    <i name="e_0_energy">     -3.01068760 </i>
   </energy>
  </scstep>
  <structure>
   <crystal>
    <varray name="basis" >
     <v>       3.17202329       0.00000000       0.00000000 </v>
     <v>      -1.58601164       2.74705275       0.00000000 </v>
     <v>       0.00000000       0.00000000       5.14120490 </v>
    </varray>
    <i name="volume">     44.79899571 </i>
    <varray name="rec_basis" >
     <v>       0.31525620       0.18201325       0.00000000 </v>
     <v>       0.00000000       0.36402650       0.00000000 </v>
     <v>       0.00000000       0.00000000       0.19450693 </v>
    </varray>
   </crystal>
   <varray name="positions" >
    <v>       0.33333333       0.66666667       0.25000000 </v>
    <v>       0.66666667       0.33333333       0.75000000 </v>
   </varray>
  </structure>
  <varray name="forces" >
   <v>      -0.00000000       0.00000000       0.00000000 </v>
   <v>       0.00000000      -0.00000000      -0.00000000 </v>
  </varray>
  <varray name="stress" >
   <v>      10.33651931       0.00000000       0.00000000 </v>
   <v>       0.00000000      10.33651931       0.00000000 </v>
   <v>       0.00000000      -0.00000000       1.77653876 </v>
  </varray>
  <energy>
   <i name="e_fr_energy">     -3.01293980 </i>
   <i name="e_wo_entrp">     -3.00843540 </i>
   <i name="e_0_energy">     -3.01068760 </i>
  </energy>
  <time name="totalsc">    1.32    1.34</time>
 </calculation>
 <calculation>
  <scstep>
   <time name="dav">    0.02    0.02</time>
   <time name="total">    0.13    0.13</time>
   <energy>
    <i name="alphaZ">      3.95826449 </i>
    <i name="ewald">    -58.71662270 </i>
    <i name="hartreedc">     -0.12638841 </i>
    <i name="XCdc">    -97.61036231 </i>
    <i name="pawpsdc">    118.85962331 </i>
    <i name="pawaedc">    -15.14760128 </i>
    <i name="eentropy">     -0.00408401 </i>
    <i name="bandstr">     -0.30203757 </i>
    <i name="atom">     46.07354693 </i>
    <i name="e_fr_energy">     -3.01566154 </i>
    <i name="e_wo_entrp">     -3.01157753 </i>
    <i name="e_0_energy">     -3.01361954 </i>
   </energy>
  </scstep>
  <scstep>
   <time name="dav">    0.02    0.02</time>
   <time name="total">    0.13    0.13</time>
   <energy>
    <i name="e_fr_energy">     -3.01564297 </i>
    <i name="e_wo_entrp">     -3.01155910 </i>
    <i name="e_0_energy">     -3.01360104 </i>
   </energy>
  </scstep>
  <scstep>
   <time name="dav">    0.03    0.03</time>
   <time name="total">    0.13    0.13</time>
   <energy>
    <i name="e_fr_energy">     -3.01562386 </i>
    <i name="e_wo_entrp">     -3.01154026 </i>
    <i name="e_0_energy">     -3.01358206 </i>
   </energy>
  </scstep>
  <scstep>
   <time name="dav">    0.02    0.02</time>
   <time name="total">    0.13    0.13</time>
   <energy>
    <i name="e_fr_energy">     -3.01562396 </i>
    <i name="e_wo_entrp">     -3.01154039 </i>
    <i name="e_0_energy">     -3.01358218 </i>
   </energy>
  </scstep>
  <scstep>
   <time name="dav">    0.01    0.02</time>
   <time name="total">    0.12    0.12</time>
   <energy>
    <i name="e_fr_energy">     -3.01562409 </i>
    <i name="e_wo_entrp">     -3.01154056 </i>
    <i name="e_0_energy">     -3.01358233 </i>
   </energy>
  </scstep>
  <scstep>
   <time name="dav">    0.01    0.01</time>
   <time name="total">    0.12    0.12</time>
   <energy>
    <i name="alphaZ">      3.95826449 </i>
    <i name="ewald">    -58.71662270 </i>
    <i name="hartreedc">     -0.12267811 </i>
    <i name="XCdc">    -97.61839234 </i>
    <i name="pawpsdc">    118.62757160 </i>
    <i name="pawaedc">    -14.91358115 </i>
    <i name="eentropy">     -0.00408353 </i>
    <i name="bandstr">     -0.29964927 </i>
    <i name="atom">     46.07354693 </i>
    <i name="e_fr_energy">     -3.01562408 </i>
    <i name="e_wo_entrp">     -3.01154055 </i>
    <i name="e_0_energy">     -3.01358231 </i>
   </energy>
  </scstep>
  <structure>
   <crystal>
    <varray name="basis" >
     <v>       3.19413740       0.00000000       0.00000000 </v>
     <v>      -1.59706870       2.76620413       0.00000000 </v>
     <v>       0.00000000      -0.00000000       5.14736515 </v>
    </varray>
    <i name="volume">     45.48024528 </i>
    <varray name="rec_basis" >
     <v>       0.31307357       0.18075311       0.00000000 </v>
     <v>      -0.00000000       0.36150622       0.00000000 </v>
     <v>      -0.00000000      -0.00000000       0.19427415 </v>
    </varray>
   </crystal>
   <varray name="positions" >
    <v>       0.33333333       0.66666667       0.25000000 </v>
    <v>       0.66666667       0.33333333       0.75000000 </v>
   </varray>
  </structure>
  <varray name="forces" >
   <v>      -0.00000000       0.00000000      -0.00000000 </v>
   <v>       0.00000000      -0.00000000       0.00000000 </v>
  </varray>
  <varray name="stress" >
   <v>       3.50423245       0.00000000       0.00000000 </v>
   <v>       0.00000000       3.50423245       0.00000000 </v>
   <v>      -0.00000000       0.00000000      -1.93553072 </v>
  </varray>
  <energy>
   <i name="e_fr_energy">     -3.01562408 </i>
   <i name="e_wo_entrp">     -3.01154055 </i>
   <i name="e_0_energy">     -3.01358231 </i>
  </energy>
  <time name="totalsc">    1.06    1.08</time>
 </calculation>
 <calculation>
  <scstep>
   <time name="dav">    0.02    0.02</time>
   <time name="total">    0.13    0.13</time>
   <energy>
    <i name="alphaZ">      3.92791308 </i>
    <i name="ewald">    -58.56539294 </i>
    <i name="hartreedc">     -0.12238684 </i>
    <i name="XCdc">    -97.62949461 </i>
    <i name="pawpsdc">    118.62712497 </i>
    <i name="pawaedc">    -14.91313052 </i>
    <i name="eentropy">     -0.00382835 </i>
    <i name="bandstr">     -0.41030301 </i>
    <i name="atom">     46.07354693 </i>
    <i name="e_fr_energy">     -3.01595130 </i>
    <i name="e_wo_entrp">     -3.01212295 </i>
    <i name="e_0_energy">     -3.01403712 </i>
   </energy>
  </scstep>
  <scstep>
   <time name="dav">    0.02    0.02</time>
   <time name="total">    0.13    0.13</time>
   <energy>
    <i name="e_fr_energy">     -3.01594599 </i>
    <i name="e_wo_entrp">     -3.01211792 </i>
    <i name="e_0_energy">     -3.01403195 </i>
   </energy>
  </scstep>
  <scstep>
   <time name="dav">    0.03    0.03</time>
   <time name="total">    0.13    0.13</time>
   <energy>
    <i name="e_fr_energy">     -3.01594012 </i>
    <i name="e_wo_entrp">     -3.01211254 </i>
    <i name="e_0_energy">     -3.01402633 </i>
   </energy>
  </scstep>
  <scstep>
   <time name="dav">    0.02    0.02</time>
   <time name="total">    0.12    0.12</time>
   <energy>
    <i name="alphaZ">      3.92791308 </i>
    <i name="ewald">    -58.56539294 </i>
    <i name="hartreedc">     -0.12060367 </i>
    <i name="XCdc">    -97.63357291 </i>
    <i name="pawpsdc">    118.51055181 </i>
    <i name="pawaedc">    -14.79555940 </i>
    <i name="eentropy">     -0.00382757 </i>
    <i name="bandstr">     -0.40899550 </i>
    <i name="atom">     46.07354693 </i>
    <i name="e_fr_energy">     -3.01594018 </i>
    <i name="e_wo_entrp">     -3.01211260 </i>
    <i name="e_0_energy">     -3.01402639 </i>
   </energy>
  </scstep>
  <structure>
   <crystal>
    <varray name="basis" >
     <v>       3.20547145       0.00000000       0.00000000 </v>
     <v>      -1.60273572       2.77601970       0.00000000 </v>
     <v>       0.00000000      -0.00000000       5.15052244 </v>
    </varray>
    <i name="volume">     45.83167614 </i>
    <varray name="rec_basis" >
     <v>       0.31196659       0.18011400       0.00000000 </v>
     <v>      -0.00000000       0.36022799       0.00000000 </v>
     <v>      -0.00000000      -0.00000000       0.19415506 </v>
    </varray>
   </crystal>
   <varray name="positions" >
    <v>       0.33333333       0.66666667       0.25000000 </v>
    <v>       0.66666667       0.33333333       0.75000000 </v>
   </varray>
  </structure>
  <varray name="forces" >
   <v>       0.00000000      -0.00000000      -0.00000000 </v>
   <v>      -0.00000000       0.00000000       0.00000000 </v>
  </varray>
  <varray name="stress" >
   <v>       0.16222336       0.00000000      -0.00000000 </v>
   <v>       0.00000000       0.16222336       0.00000000 </v>
   <v>      -0.00000000      -0.00000000      -3.66131268 </v>
  </varray>
  <energy>
   <i name="e_fr_energy">     -3.01594018 </i>
   <i name="e_wo_entrp">     -3.01211260 </i>
   <i name="e_0_energy">     -3.01402639 </i>
  </energy>
  <time name="totalsc">    0.82    0.83</time>
 </calculation>
 <calculation>
  <scstep>
   <time name="dav">    0.03    0.03</time>
   <time name="total">    0.13    0.13</time>
   <energy>
    <i name="alphaZ">      3.92924121 </i>
    <i name="ewald">    -58.57202957 </i>
    <i name="hartreedc">     -0.12056952 </i>
    <i name="XCdc">    -97.63314703 </i>
    <i name="pawpsdc">    118.51393635 </i>
    <i name="pawaedc">    -14.79897355 </i>
    <i name="eentropy">     -0.00383869 </i>
    <i name="bandstr">     -0.40410716 </i>
    <i name="atom">     46.07354693 </i>
    <i name="e_fr_energy">     -3.01594102 </i>
    <i name="e_wo_entrp">     -3.01210233 </i>
    <i name="e_0_energy">     -3.01402168 </i>
   </energy>
  </scstep>
  <scstep>
   <time name="dav">    0.02    0.02</time>
   <time name="total">    0.12    0.12</time>
   <energy>
    <i name="alphaZ">      3.92924121 </i>
    <i name="ewald">    -58.57202957 </i>
    <i name="hartreedc">     -0.12059533 </i>
    <i name="XCdc">    -97.63308560 </i>
    <i name="pawpsdc">    118.51616185 </i>
    <i name="pawaedc">    -14.80121407 </i>
    <i name="eentropy">     -0.00383871 </i>
    <i name="bandstr">     -0.40412777 </i>
    <i name="atom">     46.07354693 </i>
    <i name="e_fr_energy">     -3.01594106 </i>
    <i name="e_wo_entrp">     -3.01210235 </i>
    <i name="e_0_energy">     -3.01402170 </i>
   </energy>
  </scstep>
  <structure>
   <crystal>
    <varray name="basis" >
     <v>       3.20497287       0.00000000       0.00000000 </v>
     <v>      -1.60248643       2.77558792       0.00000000 </v>
     <v>       0.00000000      -0.00000000       5.15038355 </v>
    </varray>
    <i name="volume">     45.81618439 </i>
    <varray name="rec_basis" >
     <v>       0.31201512       0.18014201       0.00000000 </v>
     <v>      -0.00000000       0.36028403       0.00000000 </v>
     <v>      -0.00000000      -0.00000000       0.19416030 </v>
    </varray>
   </crystal>
   <varray name="positions" >
    <v>       0.33333333       0.66666667       0.25000000 </v>
    <v>       0.66666667       0.33333333       0.75000000 </v>
   </varray>
  </structure>
  <varray name="forces" >
   <v>       0.00000000      -0.00000000       0.00000000 </v>
   <v>      -0.00000000       0.00000000      -0.00000000 </v>
  </varray>
  <varray name="stress" >
   <v>       0.29665743       0.00000000       0.00000000 </v>
   <v>       0.00000000       0.29665743       0.00000000 </v>
   <v>      -0.00000000       0.00000000      -3.59760762 </v>
  </varray>
  <energy>
   <i name="e_fr_energy">     -3.01594106 </i>
   <i name="e_wo_entrp">     -3.01210235 </i>
   <i name="e_0_energy">     -3.01402170 </i>
  </energy>
  <time name="totalsc">    0.57    0.58</time>
 </calculation>
 <calculation>
  <scstep>
   <time name="dav">    0.02    0.02</time>
   <time name="total">    0.13    0.13</time>
   <energy>
    <i name="alphaZ">      3.93398710 </i>
    <i name="ewald">    -58.59456343 </i>
    <i name="hartreedc">     -0.12071911 </i>
    <i name="XCdc">    -97.63123664 </i>
    <i name="pawpsdc">    118.51867188 </i>
    <i name="pawaedc">    -14.80374929 </i>
    <i name="eentropy">     -0.00352786 </i>
    <i name="bandstr">     -0.38856314 </i>
    <i name="atom">     46.07354693 </i>
    <i name="e_fr_energy">     -3.01615355 </i>
    <i name="e_wo_entrp">     -3.01262569 </i>
    <i name="e_0_energy">     -3.01438962 </i>
   </energy>
  </scstep>
  <scstep>
   <time name="dav">    0.02    0.02</time>
   <time name="total">    0.13    0.13</time>
   <energy>
    <i name="e_fr_energy">     -3.01615310 </i>
    <i name="e_wo_entrp">     -3.01262618 </i>
    <i name="e_0_energy">     -3.01438964 </i>
   </energy>
  </scstep>
  <scstep>
   <time name="dav">    0.03    0.03</time>
   <time name="total">    0.13    0.13</time>
   <energy>
    <i name="e_fr_energy">     -3.01615281 </i>
    <i name="e_wo_entrp">     -3.01262750 </i>
    <i name="e_0_energy">     -3.01439016 </i>
   </energy>
  </scstep>
  <scstep>
   <time name="dav">    0.01    0.01</time>
   <time name="total">    0.12    0.12</time>
   <energy>
    <i name="alphaZ">      3.93398710 </i>
    <i name="ewald">    -58.59456343 </i>
    <i name="hartreedc">     -0.12133814 </i>
    <i name="XCdc">    -97.63058619 </i>
    <i name="pawpsdc">    118.54293038 </i>
    <i name="pawaedc">    -14.82817896 </i>
    <i name="eentropy">     -0.00352530 </i>
    <i name="bandstr">     -0.38842519 </i>
    <i name="atom">     46.07354693 </i>
    <i name="e_fr_energy">     -3.01615280 </i>
    <i name="e_wo_entrp">     -3.01262749 </i>
    <i name="e_0_energy">     -3.01439014 </i>
   </energy>
  </scstep>
  <structure>
   <crystal>
    <varray name="basis" >
     <v>       3.20727528       0.00000000       0.00000000 </v>
     <v>      -1.60363764       2.77758187       0.00000000 </v>
     <v>      -0.00000000      -0.00000000       5.13678716 </v>
    </varray>
    <i name="volume">     45.76091262 </i>
    <varray name="rec_basis" >
     <v>       0.31179113       0.18001270       0.00000000 </v>
     <v>      -0.00000000       0.36002539       0.00000000 </v>
     <v>      -0.00000000      -0.00000000       0.19467421 </v>
    </varray>
   </crystal>
   <varray name="positions" >
    <v>       0.33333333       0.66666667       0.25000000 </v>
    <v>       0.66666667       0.33333333       0.75000000 </v>
   </varray>
  </structure>
  <varray name="forces" >
   <v>       0.00000000      -0.00000000       0.00000000 </v>
   <v>      -0.00000000       0.00000000      -0.00000000 </v>
  </varray>
  <varray name="stress" >
   <v>       0.09433099       0.00000000       0.00000000 </v>
   <v>       0.00000000       0.09433099       0.00000000 </v>
   <v>       0.00000000       0.00000000      -1.76077896 </v>
  </varray>
  <energy>
   <i name="e_fr_energy">     -3.01615280 </i>
   <i name="e_wo_entrp">     -3.01262749 </i>
   <i name="e_0_energy">     -3.01439014 </i>
  </energy>
  <time name="totalsc">    0.81    0.83</time>
 </calculation>
 <calculation>
  <scstep>
   <time name="dav">    0.02    0.02</time>
   <time name="total">    0.13    0.13</time>
   <energy>
    <i name="alphaZ">      3.93796829 </i>
    <i name="ewald">    -58.61332336 </i>
    <i name="hartreedc">     -0.12140175 </i>
    <i name="XCdc">    -97.62912356 </i>
    <i name="pawpsdc">    118.54224326 </i>
    <i name="pawaedc">    -14.82748673 </i>
    <i name="eentropy">     -0.00332269 </i>
    <i name="bandstr">     -0.37531579 </i>
    <i name="atom">     46.07354693 </i>
    <i name="e_fr_energy">     -3.01621539 </i>
    <i name="e_wo_entrp">     -3.01289270 </i>
    <i name="e_0_energy">     -3.01455405 </i>
   </energy>
  </scstep>
  <scstep>
   <time name="dav">    0.02    0.02</time>
   <time name="total">    0.13    0.13</time>
   <energy>
    <i name="e_fr_energy">     -3.01621511 </i>
    <i name="e_wo_entrp">     -3.01289348 </i>
    <i name="e_0_energy">     -3.01455430 </i>
   </energy>
  </scstep>
  <scstep>
   <time name="dav">    0.03    0.03</time>
   <time name="total">    0.13    0.13</time>
   <energy>
    <i name="e_fr_energy">     -3.01621497 </i>
    <i name="e_wo_entrp">     -3.01289515 </i>
    <i name="e_0_energy">     -3.01455506 </i>
   </energy>
  </scstep>
  <scstep>
   <time name="dav">    0.01    0.01</time>
   <time name="total">    0.12    0.12</time>
   <energy>
    <i name="alphaZ">      3.93796829 </i>
    <i name="ewald">    -58.61332336 </i>
    <i name="hartreedc">     -0.12193059 </i>
    <i name="XCdc">    -97.62858060 </i>
    <i name="pawpsdc">    118.56300144 </i>
    <i name="pawaedc">    -14.84839278 </i>
    <i name="eentropy">     -0.00331982 </i>
    <i name="bandstr">     -0.37518449 </i>
    <i name="atom">     46.07354693 </i>
    <i name="e_fr_energy">     -3.01621496 </i>
    <i name="e_wo_entrp">     -3.01289514 </i>
    <i name="e_0_energy">     -3.01455505 </i>
   </energy>
  </scstep>
  <structure>
   <crystal>
    <varray name="basis" >
     <v>       3.20919287       0.00000000       0.00000000 </v>
     <v>      -1.60459644       2.77924256       0.00000000 </v>
     <v>      -0.00000000      -0.00000000       5.12546325 </v>
    </varray>
    <i name="volume">     45.71464947 </i>
    <varray name="rec_basis" >
     <v>       0.31160483       0.17990513       0.00000000 </v>
     <v>      -0.00000000       0.35981026       0.00000000 </v>
     <v>      -0.00000000      -0.00000000       0.19510432 </v>
    </varray>
   </crystal>
   <varray name="positions" >
    <v>       0.33333333       0.66666667       0.25000000 </v>
    <v>       0.66666667       0.33333333       0.75000000 </v>
   </varray>
  </structure>
  <varray name="forces" >
   <v>      -0.00000000       0.00000000      -0.00000000 </v>
   <v>       0.00000000      -0.00000000       0.00000000 </v>
  </varray>
  <varray name="stress" >
   <v>      -0.07850466      -0.00000000      -0.00000000 </v>
   <v>      -0.00000000      -0.07850466      -0.00000000 </v>
   <v>       0.00000000       0.00000000      -0.19654131 </v>
  </varray>
  <energy>
   <i name="e_fr_energy">     -3.01621496 </i>
   <i name="e_wo_entrp">     -3.01289514 </i>
   <i name="e_0_energy">     -3.01455505 </i>
  </energy>
  <time name="totalsc">    0.80    0.82</time>
  <eigenvalues>
   <array>
    <dimension dim="1">band</dimension>
    <dimension dim="2">kpoint</dimension>
    <dimension dim="3">spin</dimension>
    <field>eigene</field>
    <field>occ</field>
    <set>
     <set comment="spin 1">
      <set comment="kpoint 1">
       <r>   -4.2940    1.0000 </r>
       <r>    1.0513    1.0000 </r>
       <r>    1.5688    1.0000 </r>
       <r>   13.4478    0.0000 </r>
       <r>   13.4478    0.0000 </r>
       <r>   13.5306    0.0000 </r>
       <r>   13.5306    0.0000 </r>
       <r>   14.5776    0.0000 </r>
      </set>
      <set comment="kpoint 2">
       <r>   -4.1584    1.0000 </r>
       <r>    1.1750    1.0000 </r>
       <r>    1.7002    1.0000 </r>
       <r>   11.1859    0.0000 </r>
       <r>   12.2373    0.0000 </r>
       <r>   13.0804    0.0000 </r>
       <r>   14.9349    0.0000 </r>
       <r>   15.5633    0.0000 </r>
      </set>
      <set comment="kpoint 3">
       <r>   -3.7528    1.0000 </r>
       <r>    1.5462    1.0000 </r>
       <r>    2.0891    1.0000 </r>
       <r>    8.6808    0.0000 </r>
       <r>   11.2119    0.0000 </r>
       <r>   11.8823    0.0000 </r>
       <r>   13.4721    0.0000 </r>
       <r>   14.5117    0.0000 </r>
      </set>
      <set comment="kpoint 4">
       <r>   -3.0805    1.0000 </r>
       <r>    2.1654    1.0000 </r>
       <r>    2.7092    0.0387 </r>
       <r>    6.3689    0.0000 </r>
       <r>   10.4156    0.0000 </r>
       <r>   10.6246    0.0000 </r>
       <r>   11.1436    0.0000 </r>
       <r>   12.8749    0.0000 </r>
      </set>
      <set comment="kpoint 5">
       <r>   -2.1473    1.0000 </r>
       <r>    3.0332    0.0000 </r>
       <r>    3.3047    0.0000 </r>
       <r>    4.5363    0.0000 </r>
       <r>    9.0323    0.0000 </r>
       <r>    9.2235    0.0000 </r>
       <r>    9.8482    0.0000 </r>
       <r>   11.6962    0.0000 </r>
      </set>
      <set comment="kpoint 6">
       <r>   -0.9613    1.0000 </r>
       <r>    2.0877    1.0000 </r>
       <r>    4.1479    0.0000 </r>
       <r>    4.9634    0.0000 </r>
       <r>    7.1656    0.0000 </r>
       <r>    7.7165    0.0000 </r>
       <r>    9.5085    0.0000 </r>
       <r>   11.0572    0.0000 </r>
      </set>
      <set comment="kpoint 7">
       <r>    0.4610    1.0000 </r>
       <r>    0.4666    1.0000 </r>
       <r>    5.3469    0.0000 </r>
       <r>    5.7153    0.0000 </r>
       <r>    6.0639    0.0000 </r>
       <r>    6.4275    0.0000 </r>
       <r>    9.3953    0.0000 </r>
       <r>   10.8585    0.0000 </r>
      </set>
      <set comment="kpoint 8">
       <r>   -3.8878    1.0000 </r>
       <r>    1.4224    1.0000 </r>
       <r>    1.9605    1.0000 </r>
       <r>    9.8667    0.0000 </r>
       <r>   10.1461    0.0000 </r>
       <r>   14.1511    0.0000 </r>
       <r>   14.1697    0.0000 </r>
       <r>   14.4907    0.0000 </r>
      </set>
      <set comment="kpoint 9">
       <r>   -3.3488    1.0000 </r>
       <r>    1.9176    1.0000 </r>
       <r>    2.4680    0.9500 </r>
       <r>    7.5706    0.0000 </r>
       <r>    9.0383    0.0000 </r>
       <r>   12.3371    0.0000 </r>
       <r>   12.6751    0.0000 </r>
       <r>   13.9679    0.0000 </r>
      </set>
      <set comment="kpoint 10">
       <r>   -2.5461    1.0000 </r>
       <r>    2.6612    0.1383 </r>
       <r>    3.1570    0.0000 </r>
       <r>    5.4197    0.0000 </r>
       <r>    8.2467    0.0000 </r>
       <r>   10.1424    0.0000 </r>
       <r>   10.9583    0.0000 </r>
       <r>   13.1733    0.0000 </r>
      </set>
      <set comment="kpoint 11">
       <r>   -1.4864    1.0000 </r>
       <r>    2.9858    0.0000 </r>
       <r>    3.6531    0.0000 </r>
       <r>    4.5680    0.0000 </r>
       <r>    7.5911    0.0000 </r>
       <r>    8.1580    0.0000 </r>
       <r>    9.3750    0.0000 </r>
       <r>   12.6548    0.0000 </r>
      </set>
      <set comment="kpoint 12">
       <r>   -0.1801    1.0000 </r>
       <r>    1.3523    1.0000 </r>
       <r>    4.8840    0.0000 </r>
       <r>    5.5825    0.0000 </r>
       <r>    6.4268    0.0000 </r>
       <r>    6.7517    0.0000 </r>
       <r>    8.4092    0.0000 </r>
       <r>   12.3967    0.0000 </r>
      </set>
      <set comment="kpoint 13">
       <r>   -2.6794    1.0000 </r>
       <r>    2.5372    0.7471 </r>
       <r>    3.0657    0.0000 </r>
       <r>    6.5207    0.0000 </r>
       <r>    6.9434    0.0000 </r>
       <r>   11.2026    0.0000 </r>
       <r>   11.9109    0.0000 </r>
       <r>   11.9989    0.0000 </r>
      </set>
      <set comment="kpoint 14">
       <r>   -1.7501    1.0000 </r>
       <r>    3.4053    0.0000 </r>
       <r>    3.6383    0.0000 </r>
       <r>    4.8128    0.0000 </r>
       <r>    6.2050    0.0000 </r>
       <r>    9.3664    0.0000 </r>
       <r>   10.3706    0.0000 </r>
       <r>   11.0016    0.0000 </r>
      </set>
      <set comment="kpoint 15">
       <r>   -0.5694    1.0000 </r>
       <r>    2.4632    0.9566 </r>
       <r>    4.5195    0.0000 </r>
       <r>    4.9090    0.0000 </r>
       <r>    6.0464    0.0000 </r>
       <r>    7.5306    0.0000 </r>
       <r>    8.7505    0.0000 </r>
       <r>   10.5891    0.0000 </r>
      </set>
      <set comment="kpoint 16">
       <r>    0.8471    1.0000 </r>
       <r>    0.8506    1.0000 </r>
       <r>    5.1283    0.0000 </r>
       <r>    5.7104    0.0000 </r>
       <r>    6.0936    0.0000 </r>
       <r>    6.4051    0.0000 </r>
       <r>    7.8020    0.0000 </r>
       <r>   10.4564    0.0000 </r>
      </set>
      <set comment="kpoint 17">
       <r>   -0.6997    1.0000 </r>
       <r>    3.6120    0.0000 </r>
       <r>    3.8817    0.0000 </r>
       <r>    4.3966    0.0000 </r>
       <r>    5.6544    0.0000 </r>
       <r>    8.6326    0.0000 </r>
       <r>    9.2428    0.0000 </r>
       <r>    9.6225    0.0000 </r>
      </set>
      <set comment="kpoint 18">
       <r>    0.5944    1.0000 </r>
       <r>    2.1103    1.0000 </r>
       <r>    3.5735    0.0000 </r>
       <r>    5.6223    0.0000 </r>
       <r>    6.5237    0.0000 </r>
       <r>    7.1469    0.0000 </r>
       <r>    8.4230    0.0000 </r>
       <r>    8.7478    0.0000 </r>
      </set>
      <set comment="kpoint 19">
       <r>    1.9849    1.0000 </r>
       <r>    1.9916    1.0000 </r>
       <r>    1.9916    1.0000 </r>
       <r>    6.8035    0.0000 </r>
       <r>    6.8035    0.0000 </r>
       <r>    7.1027    0.0000 </r>
       <r>    7.5337    0.0000 </r>
       <r>    8.7169    0.0000 </r>
      </set>
      <set comment="kpoint 20">
       <r>   -4.1768    1.0000 </r>
       <r>   -0.1691    1.0000 </r>
       <r>    2.9914    0.0000 </r>
       <r>   13.5411    0.0000 </r>
       <r>   13.5411    0.0000 </r>
       <r>   13.6106    0.0000 </r>
       <r>   13.6106    0.0000 </r>
       <r>   13.6206    0.0000 </r>
      </set>
      <set comment="kpoint 21">
       <r>   -4.0414    1.0000 </r>
       <r>   -0.0398    1.0000 </r>
       <r>    3.1164    0.0000 </r>
       <r>   11.2731    0.0000 </r>
       <r>   12.3331    0.0000 </r>
       <r>   13.0547    0.0000 </r>
       <r>   14.0780    0.0000 </r>
       <r>   14.9153    0.0000 </r>
      </set>
      <set comment="kpoint 22">
       <r>   -3.6362    1.0000 </r>
       <r>    0.3465    1.0000 </r>
       <r>    3.4863    0.0000 </r>
       <r>    8.7833    0.0000 </r>
       <r>   11.3096    0.0000 </r>
       <r>   11.7288    0.0000 </r>
       <r>   12.8178    0.0000 </r>
       <r>   14.7285    0.0000 </r>
      </set>
      <set comment="kpoint 23">
       <r>   -2.9647    1.0000 </r>
       <r>    0.9849    1.0000 </r>
       <r>    4.0671    0.0000 </r>
       <r>    6.4933    0.0000 </r>
       <r>    9.8717    0.0000 </r>
       <r>   10.5137    0.0000 </r>
       <r>   11.4412    0.0000 </r>
       <r>   13.5102    0.0000 </r>
      </set>
      <set comment="kpoint 24">
       <r>   -2.0327    1.0000 </r>
       <r>    1.8556    1.0000 </r>
       <r>    4.0611    0.0000 </r>
       <r>    5.2533    0.0000 </r>
       <r>    7.9078    0.0000 </r>
       <r>    9.9462    0.0000 </r>
       <r>   10.2467    0.0000 </r>
       <r>   12.0666    0.0000 </r>
      </set>
      <set comment="kpoint 25">
       <r>   -0.8485    1.0000 </r>
       <r>    2.1412    1.0000 </r>
       <r>    3.1671    0.0000 </r>
       <r>    5.9313    0.0000 </r>
       <r>    6.3435    0.0000 </r>
       <r>    8.8866    0.0000 </r>
       <r>    9.6063    0.0000 </r>
       <r>   11.2633    0.0000 </r>
      </set>
      <set comment="kpoint 26">
       <r>    0.5718    1.0000 </r>
       <r>    0.5738    1.0000 </r>
       <r>    4.4369    0.0000 </r>
       <r>    4.4751    0.0000 </r>
       <r>    7.4672    0.0000 </r>
       <r>    7.5022    0.0000 </r>
       <r>    9.4931    0.0000 </r>
       <r>   11.0278    0.0000 </r>
      </set>
      <set comment="kpoint 27">
       <r>   -3.7711    1.0000 </r>
       <r>    0.2180    1.0000 </r>
       <r>    3.3641    0.0000 </r>
       <r>    9.9594    0.0000 </r>
       <r>   10.2411    0.0000 </r>
       <r>   13.4847    0.0000 </r>
       <r>   13.6052    0.0000 </r>
       <r>   13.9897    0.0000 </r>
      </set>
      <set comment="kpoint 28">
       <r>   -3.2328    1.0000 </r>
       <r>    0.7306    1.0000 </r>
       <r>    3.8459    0.0000 </r>
       <r>    7.6776    0.0000 </r>
       <r>    9.1224    0.0000 </r>
       <r>   11.3509    0.0000 </r>
       <r>   12.7041    0.0000 </r>
       <r>   13.5411    0.0000 </r>
      </set>
      <set comment="kpoint 29">
       <r>   -2.4310    1.0000 </r>
       <r>    1.4889    1.0000 </r>
       <r>    4.4287    0.0000 </r>
       <r>    5.6148    0.0000 </r>
       <r>    8.2426    0.0000 </r>
       <r>    9.3361    0.0000 </r>
       <r>   11.7292    0.0000 </r>
       <r>   12.4067    0.0000 </r>
      </set>
      <set comment="kpoint 30">
       <r>   -1.3727    1.0000 </r>
       <r>    2.4085    0.9935 </r>
       <r>    3.3783    0.0000 </r>
       <r>    5.6900    0.0000 </r>
       <r>    6.9511    0.0000 </r>
       <r>    8.1658    0.0000 </r>
       <r>   10.2622    0.0000 </r>
       <r>   11.7429    0.0000 </r>
      </set>
      <set comment="kpoint 31">
       <r>   -0.0687    1.0000 </r>
       <r>    1.4535    1.0000 </r>
       <r>    3.8433    0.0000 </r>
       <r>    5.2951    0.0000 </r>
       <r>    6.7280    0.0000 </r>
       <r>    7.7205    0.0000 </r>
       <r>    8.9416    0.0000 </r>
       <r>   11.4701    0.0000 </r>
      </set>
      <set comment="kpoint 32">
       <r>   -2.5641    1.0000 </r>
       <r>    1.3644    1.0000 </r>
       <r>    4.4015    0.0000 </r>
       <r>    6.6217    0.0000 </r>
       <r>    7.0688    0.0000 </r>
       <r>   10.4535    0.0000 </r>
       <r>   10.6214    0.0000 </r>
       <r>   13.4945    0.0000 </r>
      </set>
      <set comment="kpoint 33">
       <r>   -1.6361    1.0000 </r>
       <r>    2.2258    1.0000 </r>
       <r>    4.4296    0.0000 </r>
       <r>    5.3702    0.0000 </r>
       <r>    6.3947    0.0000 </r>
       <r>    8.5213    0.0000 </r>
       <r>    9.9114    0.0000 </r>
       <r>   11.6696    0.0000 </r>
      </set>
      <set comment="kpoint 34">
       <r>   -0.4572    1.0000 </r>
       <r>    2.5121    0.8463 </r>
       <r>    3.5230    0.0000 </r>
       <r>    5.4846    0.0000 </r>
       <r>    6.2857    0.0000 </r>
       <r>    7.2182    0.0000 </r>
       <r>    9.3935    0.0000 </r>
       <r>   10.0965    0.0000 </r>
      </set>
      <set comment="kpoint 35">
       <r>    0.9539    1.0000 </r>
       <r>    0.9598    1.0000 </r>
       <r>    4.6094    0.0000 </r>
       <r>    4.8510    0.0000 </r>
       <r>    5.7186    0.0000 </r>
       <r>    7.7728    0.0000 </r>
       <r>    8.6135    0.0000 </r>
       <r>    9.6295    0.0000 </r>
      </set>
      <set comment="kpoint 36">
       <r>   -0.5872    1.0000 </r>
       <r>    3.0744    0.0000 </r>
       <r>    3.9853    0.0000 </r>
       <r>    4.2350    0.0000 </r>
       <r>    6.5337    0.0000 </r>
       <r>    7.9134    0.0000 </r>
       <r>    8.1875    0.0000 </r>
       <r>   11.0187    0.0000 </r>
      </set>
      <set comment="kpoint 37">
       <r>    0.7041    1.0000 </r>
       <r>    2.2079    1.0000 </r>
       <r>    3.6168    0.0000 </r>
       <r>    4.7547    0.0000 </r>
       <r>    6.1249    0.0000 </r>
       <r>    7.3802    0.0000 </r>
       <r>    8.2858    0.0000 </r>
       <r>    9.5586    0.0000 </r>
      </set>
      <set comment="kpoint 38">
       <r>    2.0918    1.0000 </r>
       <r>    2.0918    1.0000 </r>
       <r>    2.0931    1.0000 </r>
       <r>    5.8851    0.0000 </r>
       <r>    6.0832    0.0000 </r>
       <r>    6.0832    0.0000 </r>
       <r>    8.9715    0.0000 </r>
       <r>    9.6421    0.0000 </r>
      </set>
      <set comment="kpoint 39">
       <r>   -3.8260    1.0000 </r>
       <r>   -1.4070    1.0000 </r>
       <r>    4.8355    0.0000 </r>
       <r>   11.4083    0.0000 </r>
       <r>   13.8064    0.0000 </r>
       <r>   13.8064    0.0000 </r>
       <r>   13.8390    0.0000 </r>
       <r>   13.8390    0.0000 </r>
      </set>
      <set comment="kpoint 40">
       <r>   -3.6911    1.0000 </r>
       <r>   -1.2755    1.0000 </r>
       <r>    4.9553    0.0000 </r>
       <r>   11.2649    0.0000 </r>
       <r>   11.8528    0.0000 </r>
       <r>   12.6198    0.0000 </r>
       <r>   13.1550    0.0000 </r>
       <r>   14.4875    0.0000 </r>
      </set>
      <set comment="kpoint 41">
       <r>   -3.2874    1.0000 </r>
       <r>   -0.8825    1.0000 </r>
       <r>    5.3045    0.0000 </r>
       <r>    9.0831    0.0000 </r>
       <r>   11.0247    0.0000 </r>
       <r>   11.6028    0.0000 </r>
       <r>   11.7343    0.0000 </r>
       <r>   13.4778    0.0000 </r>
      </set>
      <set comment="kpoint 42">
       <r>   -2.6184    1.0000 </r>
       <r>   -0.2320    1.0000 </r>
       <r>    5.7517    0.0000 </r>
       <r>    6.9201    0.0000 </r>
       <r>    8.8481    0.0000 </r>
       <r>   10.8082    0.0000 </r>
       <r>   11.5463    0.0000 </r>
       <r>   12.8780    0.0000 </r>
      </set>
      <set comment="kpoint 43">
       <r>   -1.6899    1.0000 </r>
       <r>    0.6660    1.0000 </r>
       <r>    4.4964    0.0000 </r>
       <r>    6.6149    0.0000 </r>
       <r>    7.0801    0.0000 </r>
       <r>   10.2405    0.0000 </r>
       <r>   10.9569    0.0000 </r>
       <r>   12.3074    0.0000 </r>
      </set>
      <set comment="kpoint 44">
       <r>   -0.5111    1.0000 </r>
       <r>    1.7284    1.0000 </r>
       <r>    2.7329    0.0178 </r>
       <r>    4.9074    0.0000 </r>
       <r>    7.9269    0.0000 </r>
       <r>    9.9002    0.0000 </r>
       <r>   10.1803    0.0000 </r>
       <r>   11.9487    0.0000 </r>
      </set>
      <set comment="kpoint 45">
       <r>    0.8905    1.0000 </r>
       <r>    0.8979    1.0000 </r>
       <r>    3.2943    0.0000 </r>
       <r>    3.3133    0.0000 </r>
       <r>    8.9312    0.0000 </r>
       <r>    9.2458    0.0000 </r>
       <r>    9.7868    0.0000 </r>
       <r>   11.5638    0.0000 </r>
      </set>
      <set comment="kpoint 46">
       <r>   -3.4217    1.0000 </r>
       <r>   -1.0133    1.0000 </r>
       <r>    5.1907    0.0000 </r>
       <r>   10.2032    0.0000 </r>
       <r>   10.5128    0.0000 </r>
       <r>   11.6870    0.0000 </r>
       <r>   12.6530    0.0000 </r>
       <r>   12.9102    0.0000 </r>
      </set>
      <set comment="kpoint 47">
       <r>   -2.8854    1.0000 </r>
       <r>   -0.4915    1.0000 </r>
       <r>    5.6290    0.0000 </r>
       <r>    7.9984    0.0000 </r>
       <r>    9.3020    0.0000 </r>
       <r>   10.3431    0.0000 </r>
       <r>   11.5744    0.0000 </r>
       <r>   12.6593    0.0000 </r>
      </set>
      <set comment="kpoint 48">
       <r>   -2.0866    1.0000 </r>
       <r>    0.2837    1.0000 </r>
       <r>    5.4920    0.0000 </r>
       <r>    6.6118    0.0000 </r>
       <r>    7.7669    0.0000 </r>
       <r>    9.0541    0.0000 </r>
       <r>   10.9385    0.0000 </r>
       <r>   12.8457    0.0000 </r>
      </set>
      <set comment="kpoint 49">
       <r>   -1.0326    1.0000 </r>
       <r>    1.2909    1.0000 </r>
       <r>    3.6591    0.0000 </r>
       <r>    5.8659    0.0000 </r>
       <r>    7.3102    0.0000 </r>
       <r>    8.5906    0.0000 </r>
       <r>   10.4632    0.0000 </r>
       <r>   11.9183    0.0000 </r>
      </set>
      <set comment="kpoint 50">
       <r>    0.2633    1.0000 </r>
       <r>    1.7158    1.0000 </r>
       <r>    2.7437    0.0121 </r>
       <r>    4.1601    0.0000 </r>
       <r>    7.7318    0.0000 </r>
       <r>    8.9280    0.0000 </r>
       <r>   10.1019    0.0000 </r>
       <r>   10.7075    0.0000 </r>
      </set>
      <set comment="kpoint 51">
       <r>   -2.2192    1.0000 </r>
       <r>    0.1554    1.0000 </r>
       <r>    6.0270    0.0000 </r>
       <r>    6.9175    0.0000 </r>
       <r>    7.4638    0.0000 </r>
       <r>    9.3799    0.0000 </r>
       <r>    9.5760    0.0000 </r>
       <r>   13.1904    0.0000 </r>
      </set>
      <set comment="kpoint 52">
       <r>   -1.2948    1.0000 </r>
       <r>    1.0470    1.0000 </r>
       <r>    4.8596    0.0000 </r>
       <r>    6.1758    0.0000 </r>
       <r>    6.9498    0.0000 </r>
       <r>    7.9253    0.0000 </r>
       <r>    8.9287    0.0000 </r>
       <r>   13.2973    0.0000 </r>
      </set>
      <set comment="kpoint 53">
       <r>   -0.1217    1.0000 </r>
       <r>    2.0953    1.0000 </r>
       <r>    3.1115    0.0000 </r>
       <r>    5.1546    0.0000 </r>
       <r>    6.1770    0.0000 </r>
       <r>    8.0996    0.0000 </r>
       <r>    8.9972    0.0000 </r>
       <r>   11.5882    0.0000 </r>
      </set>
      <set comment="kpoint 54">
       <r>    1.2690    1.0000 </r>
       <r>    1.2807    1.0000 </r>
       <r>    3.6313    0.0000 </r>
       <r>    3.6752    0.0000 </r>
       <r>    6.0123    0.0000 </r>
       <r>    8.1179    0.0000 </r>
       <r>    9.9754    0.0000 </r>
       <r>   10.2008    0.0000 </r>
      </set>
      <set comment="kpoint 55">
       <r>   -0.2508    1.0000 </r>
       <r>    2.0277    1.0000 </r>
       <r>    4.2895    0.0000 </r>
       <r>    4.4734    0.0000 </r>
       <r>    6.5949    0.0000 </r>
       <r>    6.8637    0.0000 </r>
       <r>    8.7031    0.0000 </r>
       <r>   12.8067    0.0000 </r>
      </set>
      <set comment="kpoint 56">
       <r>    1.0305    1.0000 </r>
       <r>    2.4528    0.9685 </r>
       <r>    3.3639    0.0000 </r>
       <r>    4.1609    0.0000 </r>
       <r>    5.1498    0.0000 </r>
       <r>    6.5033    0.0000 </r>
       <r>    9.7994    0.0000 </r>
       <r>   11.2603    0.0000 </r>
      </set>
      <set comment="kpoint 57">
       <r>    2.3756    0.9984 </r>
       <r>    2.3756    0.9984 </r>
       <r>    2.4179    0.9907 </r>
       <r>    4.6947    0.0000 </r>
       <r>    5.0516    0.0000 </r>
       <r>    5.0516    0.0000 </r>
       <r>   10.8213    0.0000 </r>
       <r>   11.2979    0.0000 </r>
      </set>
      <set comment="kpoint 58">
       <r>   -3.2442    1.0000 </r>
       <r>   -2.4358    1.0000 </r>
       <r>    6.8717    0.0000 </r>
       <r>    9.0785    0.0000 </r>
       <r>   14.1386    0.0000 </r>
       <r>   14.1386    0.0000 </r>
       <r>   14.1432    0.0000 </r>
       <r>   14.1432    0.0000 </r>
      </set>
      <set comment="kpoint 59">
       <r>   -3.1101    1.0000 </r>
       <r>   -2.3028    1.0000 </r>
       <r>    6.9833    0.0000 </r>
       <r>    9.1713    0.0000 </r>
       <r>   12.0967    0.0000 </r>
       <r>   12.6696    0.0000 </r>
       <r>   13.0936    0.0000 </r>
       <r>   13.7405    0.0000 </r>
      </set>
      <set comment="kpoint 60">
       <r>   -2.7089    1.0000 </r>
       <r>   -1.9051    1.0000 </r>
       <r>    7.2896    0.0000 </r>
       <r>    9.2251    0.0000 </r>
       <r>    9.8284    0.0000 </r>
       <r>   10.4099    0.0000 </r>
       <r>   12.0921    0.0000 </r>
       <r>   12.7776    0.0000 </r>
      </set>
      <set comment="kpoint 61">
       <r>   -2.0440    1.0000 </r>
       <r>   -1.2463    1.0000 </r>
       <r>    7.0116    0.0000 </r>
       <r>    7.7490    0.0000 </r>
       <r>    8.3205    0.0000 </r>
       <r>   10.1514    0.0000 </r>
       <r>   11.2999    0.0000 </r>
       <r>   11.9899    0.0000 </r>
      </set>
      <set comment="kpoint 62">
       <r>   -1.1217    1.0000 </r>
       <r>   -0.3334    1.0000 </r>
       <r>    5.0567    0.0000 </r>
       <r>    5.8057    0.0000 </r>
       <r>    8.8319    0.0000 </r>
       <r>   10.6407    0.0000 </r>
       <r>   10.7319    0.0000 </r>
       <r>   11.4211    0.0000 </r>
      </set>
      <set comment="kpoint 63">
       <r>    0.0465    1.0000 </r>
       <r>    0.8125    1.0000 </r>
       <r>    3.2063    0.0000 </r>
       <r>    3.9518    0.0000 </r>
       <r>    9.6806    0.0000 </r>
       <r>   10.3907    0.0000 </r>
       <r>   10.8446    0.0000 </r>
       <r>   11.0786    0.0000 </r>
      </set>
      <set comment="kpoint 64">
       <r>    1.3722    1.0000 </r>
       <r>    1.3868    1.0000 </r>
       <r>    2.3833    0.9978 </r>
       <r>    2.4059    0.9942 </r>
       <r>   10.2489    0.0000 </r>
       <r>   10.2770    0.0000 </r>
       <r>   10.7253    0.0000 </r>
       <r>   10.9643    0.0000 </r>
      </set>
      <set comment="kpoint 65">
       <r>   -2.8424    1.0000 </r>
       <r>   -2.0375    1.0000 </r>
       <r>    7.1967    0.0000 </r>
       <r>    9.3175    0.0000 </r>
       <r>   10.7600    0.0000 </r>
       <r>   10.8533    0.0000 </r>
       <r>   11.9393    0.0000 </r>
       <r>   12.0811    0.0000 </r>
      </set>
      <set comment="kpoint 66">
       <r>   -2.3094    1.0000 </r>
       <r>   -1.5092    1.0000 </r>
       <r>    7.5012    0.0000 </r>
       <r>    8.5147    0.0000 </r>
       <r>    9.0016    0.0000 </r>
       <r>    9.6442    0.0000 </r>
       <r>   10.6344    0.0000 </r>
       <r>   11.1935    0.0000 </r>
      </set>
      <set comment="kpoint 67">
       <r>   -1.5157    1.0000 </r>
       <r>   -0.7230    1.0000 </r>
       <r>    6.1379    0.0000 </r>
       <r>    6.8748    0.0000 </r>
       <r>    8.3373    0.0000 </r>
       <r>    9.3940    0.0000 </r>
       <r>   10.1227    0.0000 </r>
       <r>   11.1722    0.0000 </r>
      </set>
      <set comment="kpoint 68">
       <r>   -0.4695    1.0000 </r>
       <r>    0.3100    1.0000 </r>
       <r>    4.1926    0.0000 </r>
       <r>    4.9376    0.0000 </r>
       <r>    8.5232    0.0000 </r>
       <r>    9.2356    0.0000 </r>
       <r>   10.1317    0.0000 </r>
       <r>   11.8458    0.0000 </r>
      </set>
      <set comment="kpoint 69">
       <r>    0.8067    1.0000 </r>
       <r>    1.5077    1.0000 </r>
       <r>    2.5191    0.8216 </r>
       <r>    3.2088    0.0000 </r>
       <r>    8.4173    0.0000 </r>
       <r>    9.1367    0.0000 </r>
       <r>   10.9766    0.0000 </r>
       <r>   12.0935    0.0000 </r>
      </set>
      <set comment="kpoint 70">
       <r>   -1.6475    1.0000 </r>
       <r>   -0.8534    1.0000 </r>
       <r>    7.3099    0.0000 </r>
       <r>    7.3595    0.0000 </r>
       <r>    7.9255    0.0000 </r>
       <r>    8.4235    0.0000 </r>
       <r>    9.4192    0.0000 </r>
       <r>   11.0405    0.0000 </r>
      </set>
      <set comment="kpoint 71">
       <r>   -0.7295    1.0000 </r>
       <r>    0.0545    1.0000 </r>
       <r>    5.3962    0.0000 </r>
       <r>    6.0490    0.0000 </r>
       <r>    7.0741    0.0000 </r>
       <r>    7.7342    0.0000 </r>
       <r>    9.7279    0.0000 </r>
       <r>   11.7669    0.0000 </r>
      </set>
      <set comment="kpoint 72">
       <r>    0.4321    1.0000 </r>
       <r>    1.1916    1.0000 </r>
       <r>    3.5743    0.0000 </r>
       <r>    4.2952    0.0000 </r>
       <r>    6.6694    0.0000 </r>
       <r>    7.3902    0.0000 </r>
       <r>   10.6947    0.0000 </r>
       <r>   12.7707    0.0000 </r>
      </set>
      <set comment="kpoint 73">
       <r>    1.7446    1.0000 </r>
       <r>    1.7575    1.0000 </r>
       <r>    2.7698    0.0044 </r>
       <r>    2.7737    0.0037 </r>
       <r>    6.5411    0.0000 </r>
       <r>    7.2720    0.0000 </r>
       <r>   11.8690    0.0000 </r>
       <r>   12.0614    0.0000 </r>
      </set>
      <set comment="kpoint 74">
       <r>    0.3053    1.0000 </r>
       <r>    1.0723    1.0000 </r>
       <r>    4.7434    0.0000 </r>
       <r>    4.8713    0.0000 </r>
       <r>    5.8604    0.0000 </r>
       <r>    6.0024    0.0000 </r>
       <r>   10.5803    0.0000 </r>
       <r>   12.7004    0.0000 </r>
      </set>
      <set comment="kpoint 75">
       <r>    1.5619    1.0000 </r>
       <r>    2.2358    1.0000 </r>
       <r>    3.2466    0.0000 </r>
       <r>    3.8366    0.0000 </r>
       <r>    4.9636    0.0000 </r>
       <r>    5.5973    0.0000 </r>
       <r>   11.7560    0.0000 </r>
       <r>   13.1590    0.0000 </r>
      </set>
      <set comment="kpoint 76">
       <r>    2.7363    0.0158 </r>
       <r>    2.7363    0.0158 </r>
       <r>    2.9596    0.0000 </r>
       <r>    3.7185    0.0000 </r>
       <r>    4.2883    0.0000 </r>
       <r>    4.2883    0.0000 </r>
       <r>   12.8917    0.0000 </r>
       <r>   13.1535    0.0000 </r>
      </set>
     </set>
    </set>
   </array>
  </eigenvalues>
  <separator name="orbital magnetization" >
   <v name="MAGDIPOLOUT">      0.00000000      0.00000000      0.00000000</v>
  </separator>
  <dos>
   <i name="efermi">      2.58429501 </i>
   <total>
    <array>
     <dimension dim="1">gridpoints</dimension>
     <dimension dim="2">spin</dimension>
     <field>energy</field>
     <field>total</field>
     <field>integrated</field>
     <set>
      <set comment="spin 1">
       <r>    -5.2940     0.0000     0.0000 </r>
       <r>    -5.2212     0.0000     0.0000 </r>
       <r>    -5.1483     0.0000     0.0000 </r>
       <r>    -5.0754     0.0000     0.0000 </r>
       <r>    -5.0026     0.0000     0.0000 </r>
       <r>    -4.9297     0.0000     0.0000 </r>
       <r>    -4.8569     0.0000     0.0000 </r>
       <r>    -4.7840     0.0000     0.0000 </r>
       <r>    -4.7112     0.0000     0.0000 </r>
       <r>    -4.6383     0.0000     0.0000 </r>
       <r>    -4.5654     0.0000     0.0000 </r>
       <r>    -4.4926     0.0001     0.0000 </r>
       <r>    -4.4197     0.0010     0.0001 </r>
       <r>    -4.3469     0.0062     0.0005 </r>
       <r>    -4.2740     0.0225     0.0022 </r>
       <r>    -4.2012     0.0633     0.0068 </r>
       <r>    -4.1283     0.1195     0.0155 </r>
       <r>    -4.0554     0.1575     0.0270 </r>
       <r>    -3.9826     0.1504     0.0379 </r>
       <r>    -3.9097     0.1201     0.0467 </r>
       <r>    -3.8369     0.1634     0.0586 </r>
       <r>    -3.7640     0.2777     0.0788 </r>
       <r>    -3.6911     0.3575     0.1048 </r>
       <r>    -3.6183     0.3053     0.1271 </r>
       <r>    -3.5454     0.1637     0.1390 </r>
       <r>    -3.4726     0.1137     0.1473 </r>
       <r>    -3.3997     0.2171     0.1631 </r>
       <r>    -3.3269     0.3565     0.1891 </r>
       <r>    -3.2540     0.4641     0.2229 </r>
       <r>    -3.1811     0.4401     0.2550 </r>
       <r>    -3.1083     0.3244     0.2786 </r>
       <r>    -3.0354     0.2601     0.2975 </r>
       <r>    -2.9626     0.2863     0.3184 </r>
       <r>    -2.8897     0.4159     0.3487 </r>
       <r>    -2.8169     0.4272     0.3798 </r>
       <r>    -2.7440     0.3098     0.4024 </r>
       <r>    -2.6711     0.3206     0.4258 </r>
       <r>    -2.5983     0.4104     0.4557 </r>
       <r>    -2.5254     0.4457     0.4881 </r>
       <r>    -2.4526     0.4280     0.5193 </r>
       <r>    -2.3797     0.4545     0.5524 </r>
       <r>    -2.3069     0.5177     0.5902 </r>
       <r>    -2.2340     0.4982     0.6264 </r>
       <r>    -2.1611     0.4253     0.6574 </r>
       <r>    -2.0883     0.5573     0.6980 </r>
       <r>    -2.0154     0.6654     0.7465 </r>
       <r>    -1.9426     0.4538     0.7796 </r>
       <r>    -1.8697     0.2365     0.7968 </r>
       <r>    -1.7968     0.1896     0.8106 </r>
       <r>    -1.7240     0.3323     0.8348 </r>
       <r>    -1.6511     0.5670     0.8761 </r>
       <r>    -1.5783     0.6916     0.9265 </r>
       <r>    -1.5054     0.7758     0.9830 </r>
       <r>    -1.4326     0.7324     1.0364 </r>
       <r>    -1.3597     0.6286     1.0822 </r>
       <r>    -1.2868     0.6687     1.1309 </r>
       <r>    -1.2140     0.5660     1.1722 </r>
       <r>    -1.1411     0.3636     1.1987 </r>
       <r>    -1.0683     0.3958     1.2275 </r>
       <r>    -0.9954     0.5164     1.2651 </r>
       <r>    -0.9226     0.4977     1.3014 </r>
       <r>    -0.8497     0.5143     1.3389 </r>
       <r>    -0.7768     0.6024     1.3827 </r>
       <r>    -0.7040     0.6911     1.4331 </r>
       <r>    -0.6311     0.6117     1.4777 </r>
       <r>    -0.5583     0.6504     1.5250 </r>
       <r>    -0.4854     0.9507     1.5943 </r>
       <r>    -0.4125     0.9116     1.6607 </r>
       <r>    -0.3397     0.5264     1.6991 </r>
       <r>    -0.2668     0.4118     1.7291 </r>
       <r>    -0.1940     0.5377     1.7683 </r>
       <r>    -0.1211     0.6836     1.8181 </r>
       <r>    -0.0483     0.7512     1.8728 </r>
       <r>     0.0246     0.6875     1.9229 </r>
       <r>     0.0975     0.5812     1.9652 </r>
       <r>     0.1703     0.5274     2.0037 </r>
       <r>     0.2432     0.7871     2.0610 </r>
       <r>     0.3160     1.1095     2.1418 </r>
       <r>     0.3889     0.9371     2.2101 </r>
       <r>     0.4617     0.5897     2.2531 </r>
       <r>     0.5346     0.4145     2.2833 </r>
       <r>     0.6075     0.4535     2.3163 </r>
       <r>     0.6803     0.6633     2.3646 </r>
       <r>     0.7532     0.8727     2.4282 </r>
       <r>     0.8260     0.8950     2.4934 </r>
       <r>     0.8989     0.8009     2.5518 </r>
       <r>     0.9718     0.8415     2.6131 </r>
       <r>     1.0446     0.9708     2.6838 </r>
       <r>     1.1175     0.8226     2.7438 </r>
       <r>     1.1903     0.6531     2.7913 </r>
       <r>     1.2632     0.7740     2.8477 </r>
       <r>     1.3360     0.9237     2.9150 </r>
       <r>     1.4089     0.9700     2.9857 </r>
       <r>     1.4818     1.0790     3.0643 </r>
       <r>     1.5546     1.0447     3.1404 </r>
       <r>     1.6275     0.7222     3.1930 </r>
       <r>     1.7003     0.6488     3.2403 </r>
       <r>     1.7732     0.7476     3.2948 </r>
       <r>     1.8460     0.5588     3.3355 </r>
       <r>     1.9189     0.4144     3.3657 </r>
       <r>     1.9918     0.4875     3.4012 </r>
       <r>     2.0646     0.7745     3.4576 </r>
       <r>     2.1375     1.1105     3.5386 </r>
       <r>     2.2103     1.1927     3.6255 </r>
       <r>     2.2832     0.9624     3.6956 </r>
       <r>     2.3561     0.7398     3.7495 </r>
       <r>     2.4289     1.0417     3.8254 </r>
       <r>     2.5018     1.3157     3.9212 </r>
       <r>     2.5746     0.9894     3.9933 </r>
       <r>     2.6475     0.5925     4.0365 </r>
       <r>     2.7203     0.7185     4.0888 </r>
       <r>     2.7932     0.8234     4.1488 </r>
       <r>     2.8661     0.4674     4.1829 </r>
       <r>     2.9389     0.2428     4.2006 </r>
       <r>     3.0118     0.4103     4.2305 </r>
       <r>     3.0846     0.7591     4.2858 </r>
       <r>     3.1575     1.0874     4.3650 </r>
       <r>     3.2303     1.1874     4.4515 </r>
       <r>     3.3032     1.1123     4.5325 </r>
       <r>     3.3761     1.0933     4.6122 </r>
       <r>     3.4489     0.9749     4.6832 </r>
       <r>     3.5218     0.9466     4.7522 </r>
       <r>     3.5946     1.3140     4.8479 </r>
       <r>     3.6675     1.4719     4.9552 </r>
       <r>     3.7404     1.0368     5.0307 </r>
       <r>     3.8132     0.8224     5.0906 </r>
       <r>     3.8861     0.9378     5.1589 </r>
       <r>     3.9589     0.7365     5.2126 </r>
       <r>     4.0318     0.5691     5.2541 </r>
       <r>     4.1046     0.7207     5.3066 </r>
       <r>     4.1775     1.0471     5.3829 </r>
       <r>     4.2504     1.1287     5.4651 </r>
       <r>     4.3232     0.9769     5.5363 </r>
       <r>     4.3961     1.0114     5.6100 </r>
       <r>     4.4689     1.2094     5.6981 </r>
       <r>     4.5418     1.0511     5.7747 </r>
       <r>     4.6146     0.6613     5.8229 </r>
       <r>     4.6875     0.4706     5.8571 </r>
       <r>     4.7604     0.6531     5.9047 </r>
       <r>     4.8332     1.0668     5.9824 </r>
       <r>     4.9061     1.4707     6.0896 </r>
       <r>     4.9789     1.4233     6.1933 </r>
       <r>     5.0518     0.9773     6.2645 </r>
       <r>     5.1247     0.8244     6.3246 </r>
       <r>     5.1975     0.9143     6.3912 </r>
       <r>     5.2704     0.8975     6.4566 </r>
       <r>     5.3432     0.9755     6.5276 </r>
       <r>     5.4161     1.0799     6.6063 </r>
       <r>     5.4889     1.0787     6.6849 </r>
       <r>     5.5618     1.1634     6.7697 </r>
       <r>     5.6347     1.4257     6.8736 </r>
       <r>     5.7075     1.3660     6.9731 </r>
       <r>     5.7804     0.9854     7.0449 </r>
       <r>     5.8532     0.7871     7.1022 </r>
       <r>     5.9261     0.7704     7.1584 </r>
       <r>     5.9989     0.9116     7.2248 </r>
       <r>     6.0718     1.2883     7.3186 </r>
       <r>     6.1447     1.5234     7.4296 </r>
       <r>     6.2175     1.3429     7.5275 </r>
       <r>     6.2904     0.9312     7.5953 </r>
       <r>     6.3632     0.8199     7.6551 </r>
       <r>     6.4361     0.9733     7.7260 </r>
       <r>     6.5090     1.1942     7.8130 </r>
       <r>     6.5818     1.3630     7.9123 </r>
[...]
        <r>  0.0000  0.0001  0.1138 </r>
       </set>
       <set comment="band 8">
        <r>  0.0000  0.0001  0.1138 </r>
        <r>  0.0000  0.0001  0.1138 </r>
       </set>
      </set>
      <set comment="kpoint 59">
       <set comment="band 1">
        <r>  0.0796  0.0093  0.0002 </r>
        <r>  0.0796  0.0093  0.0002 </r>
       </set>
       <set comment="band 2">
        <r>  0.0730  0.0154  0.0005 </r>
        <r>  0.0730  0.0154  0.0005 </r>
       </set>
       <set comment="band 3">
        <r>  0.0231  0.0492  0.0233 </r>
        <r>  0.0231  0.0492  0.0233 </r>
       </set>
       <set comment="band 4">
        <r>  0.0129  0.0512  0.0349 </r>
        <r>  0.0129  0.0512  0.0349 </r>
       </set>
       <set comment="band 5">
        <r>  0.0090  0.0474  0.0527 </r>
        <r>  0.0090  0.0474  0.0527 </r>
       </set>
       <set comment="band 6">
        <r>  0.0040  0.0344  0.0660 </r>
        <r>  0.0040  0.0344  0.0660 </r>
       </set>
       <set comment="band 7">
        <r>  0.0000  0.0685  0.0585 </r>
        <r>  0.0000  0.0685  0.0585 </r>
       </set>
       <set comment="band 8">
        <r>  0.0000  0.0528  0.0753 </r>
        <r>  0.0000  0.0528  0.0753 </r>
       </set>
      </set>
      <set comment="kpoint 60">
       <set comment="band 1">
        <r>  0.0764  0.0124  0.0003 </r>
        <r>  0.0764  0.0124  0.0003 </r>
       </set>
       <set comment="band 2">
        <r>  0.0697  0.0184  0.0008 </r>
        <r>  0.0697  0.0184  0.0008 </r>
       </set>
       <set comment="band 3">
        <r>  0.0154  0.0517  0.0255 </r>
        <r>  0.0154  0.0517  0.0255 </r>
       </set>
       <set comment="band 4">
        <r>  0.0042  0.0596  0.0348 </r>
        <r>  0.0042  0.0596  0.0348 </r>
       </set>
       <set comment="band 5">
        <r>  0.0219  0.0374  0.0381 </r>
        <r>  0.0219  0.0374  0.0381 </r>
       </set>
       <set comment="band 6">
        <r>  0.0186  0.0474  0.0395 </r>
        <r>  0.0186  0.0474  0.0395 </r>
       </set>
       <set comment="band 7">
        <r>  0.0000  0.0850  0.0389 </r>
        <r>  0.0000  0.0850  0.0389 </r>
       </set>
       <set comment="band 8">
        <r>  0.0000  0.0770  0.0498 </r>
        <r>  0.0000  0.0770  0.0498 </r>
       </set>
      </set>
      <set comment="kpoint 61">
       <set comment="band 1">
        <r>  0.0710  0.0173  0.0007 </r>
        <r>  0.0710  0.0173  0.0007 </r>
       </set>
       <set comment="band 2">
        <r>  0.0642  0.0231  0.0012 </r>
        <r>  0.0642  0.0231  0.0012 </r>
       </set>
       <set comment="band 3">
        <r>  0.0081  0.0524  0.0258 </r>
        <r>  0.0081  0.0524  0.0258 </r>
       </set>
       <set comment="band 4">
        <r>  0.0151  0.0616  0.0228 </r>
        <r>  0.0151  0.0616  0.0228 </r>
       </set>
       <set comment="band 5">
        <r>  0.0347  0.0335  0.0309 </r>
        <r>  0.0347  0.0335  0.0309 </r>
       </set>
       <set comment="band 6">
        <r>  0.0108  0.0457  0.0429 </r>
        <r>  0.0108  0.0457  0.0429 </r>
       </set>
       <set comment="band 7">
        <r>  0.0000  0.0943  0.0265 </r>
        <r>  0.0000  0.0943  0.0265 </r>
       </set>
       <set comment="band 8">
        <r>  0.0000  0.0872  0.0364 </r>
        <r>  0.0000  0.0872  0.0364 </r>
       </set>
      </set>
      <set comment="kpoint 62">
       <set comment="band 1">
        <r>  0.0632  0.0240  0.0013 </r>
        <r>  0.0632  0.0240  0.0013 </r>
       </set>
       <set comment="band 2">
        <r>  0.0560  0.0298  0.0021 </r>
        <r>  0.0560  0.0298  0.0021 </r>
       </set>
       <set comment="band 3">
        <r>  0.0320  0.0447  0.0158 </r>
        <r>  0.0320  0.0447  0.0158 </r>
       </set>
       <set comment="band 4">
        <r>  0.0277  0.0475  0.0181 </r>
        <r>  0.0277  0.0475  0.0181 </r>
       </set>
       <set comment="band 5">
        <r>  0.0151  0.0448  0.0350 </r>
        <r>  0.0151  0.0448  0.0350 </r>
       </set>
       <set comment="band 6">
        <r>  0.0039  0.0325  0.0567 </r>
        <r>  0.0039  0.0325  0.0567 </r>
       </set>
       <set comment="band 7">
        <r>  0.0000  0.1001  0.0184 </r>
        <r>  0.0000  0.1001  0.0184 </r>
       </set>
       <set comment="band 8">
        <r>  0.0000  0.0930  0.0282 </r>
        <r>  0.0000  0.0930  0.0282 </r>
       </set>
      </set>
      <set comment="kpoint 63">
       <set comment="band 1">
        <r>  0.0519  0.0331  0.0024 </r>
        <r>  0.0519  0.0331  0.0024 </r>
       </set>
       <set comment="band 2">
        <r>  0.0416  0.0408  0.0030 </r>
        <r>  0.0416  0.0408  0.0030 </r>
       </set>
       <set comment="band 3">
        <r>  0.0511  0.0335  0.0108 </r>
        <r>  0.0511  0.0335  0.0108 </r>
       </set>
       <set comment="band 4">
        <r>  0.0420  0.0395  0.0124 </r>
        <r>  0.0420  0.0395  0.0124 </r>
       </set>
       <set comment="band 5">
        <r>  0.0022  0.0351  0.0489 </r>
        <r>  0.0022  0.0351  0.0489 </r>
       </set>
       <set comment="band 6">
        <r>  0.0000  0.1034  0.0138 </r>
        <r>  0.0000  0.1034  0.0138 </r>
       </set>
       <set comment="band 7">
        <r>  0.0115  0.0121  0.0685 </r>
        <r>  0.0115  0.0121  0.0685 </r>
       </set>
       <set comment="band 8">
        <r>  0.0000  0.0960  0.0236 </r>
        <r>  0.0000  0.0960  0.0236 </r>
       </set>
      </set>
      <set comment="kpoint 64">
       <set comment="band 1">
        <r>  0.0045  0.0631  0.0017 </r>
        <r>  0.0045  0.0631  0.0017 </r>
       </set>
       <set comment="band 2">
        <r>  0.0396  0.0473  0.0029 </r>
        <r>  0.0396  0.0473  0.0029 </r>
       </set>
       <set comment="band 3">
        <r>  0.0585  0.0228  0.0108 </r>
        <r>  0.0585  0.0228  0.0108 </r>
       </set>
       <set comment="band 4">
        <r>  0.0864  0.0140  0.0104 </r>
        <r>  0.0864  0.0140  0.0104 </r>
       </set>
       <set comment="band 5">
        <r>  0.0030  0.0037  0.0691 </r>
        <r>  0.0030  0.0037  0.0691 </r>
       </set>
       <set comment="band 6">
        <r>  0.0000  0.1044  0.0122 </r>
        <r>  0.0000  0.1044  0.0122 </r>
       </set>
       <set comment="band 7">
        <r>  0.0010  0.0288  0.0622 </r>
        <r>  0.0010  0.0288  0.0622 </r>
       </set>
       <set comment="band 8">
        <r>  0.0000  0.0970  0.0221 </r>
        <r>  0.0000  0.0970  0.0221 </r>
       </set>
      </set>
      <set comment="kpoint 65">
       <set comment="band 1">
        <r>  0.0774  0.0114  0.0003 </r>
        <r>  0.0774  0.0114  0.0003 </r>
       </set>
       <set comment="band 2">
        <r>  0.0708  0.0174  0.0007 </r>
        <r>  0.0708  0.0174  0.0007 </r>
       </set>
       <set comment="band 3">
        <r>  0.0187  0.0507  0.0247 </r>
        <r>  0.0187  0.0507  0.0247 </r>
       </set>
       <set comment="band 4">
        <r>  0.0071  0.0536  0.0366 </r>
        <r>  0.0071  0.0536  0.0366 </r>
       </set>
       <set comment="band 5">
        <r>  0.0005  0.0367  0.0493 </r>
        <r>  0.0005  0.0367  0.0493 </r>
       </set>
       <set comment="band 6">
        <r>  0.0126  0.0523  0.0431 </r>
        <r>  0.0126  0.0523  0.0431 </r>
       </set>
       <set comment="band 7">
        <r>  0.0242  0.0636  0.0362 </r>
        <r>  0.0242  0.0636  0.0362 </r>
       </set>
       <set comment="band 8">
        <r>  0.0340  0.0799  0.0302 </r>
        <r>  0.0340  0.0799  0.0302 </r>
       </set>
      </set>
      <set comment="kpoint 66">
       <set comment="band 1">
        <r>  0.0731  0.0153  0.0005 </r>
        <r>  0.0731  0.0153  0.0005 </r>
       </set>
       <set comment="band 2">
        <r>  0.0664  0.0212  0.0010 </r>
        <r>  0.0664  0.0212  0.0010 </r>
       </set>
       <set comment="band 3">
        <r>  0.0042  0.0541  0.0285 </r>
        <r>  0.0042  0.0541  0.0285 </r>
       </set>
       <set comment="band 4">
        <r>  0.0200  0.0578  0.0259 </r>
        <r>  0.0200  0.0578  0.0259 </r>
       </set>
       <set comment="band 5">
        <r>  0.0058  0.0387  0.0397 </r>
        <r>  0.0058  0.0387  0.0397 </r>
       </set>
       <set comment="band 6">
        <r>  0.0079  0.0538  0.0380 </r>
        <r>  0.0079  0.0538  0.0380 </r>
       </set>
       <set comment="band 7">
        <r>  0.0443  0.0601  0.0229 </r>
        <r>  0.0443  0.0601  0.0229 </r>
       </set>
       <set comment="band 8">
        <r>  0.0452  0.0727  0.0219 </r>
        <r>  0.0452  0.0727  0.0219 </r>
       </set>
      </set>
      <set comment="kpoint 67">
       <set comment="band 1">
        <r>  0.0666  0.0211  0.0010 </r>
        <r>  0.0666  0.0211  0.0010 </r>
       </set>
       <set comment="band 2">
        <r>  0.0597  0.0269  0.0017 </r>
        <r>  0.0597  0.0269  0.0017 </r>
       </set>
       <set comment="band 3">
        <r>  0.0214  0.0487  0.0204 </r>
        <r>  0.0214  0.0487  0.0204 </r>
       </set>
       <set comment="band 4">
        <r>  0.0183  0.0516  0.0225 </r>
        <r>  0.0183  0.0516  0.0225 </r>
       </set>
       <set comment="band 5">
        <r>  0.0066  0.0489  0.0332 </r>
        <r>  0.0066  0.0489  0.0332 </r>
       </set>
       <set comment="band 6">
        <r>  0.0230  0.0612  0.0286 </r>
        <r>  0.0230  0.0612  0.0286 </r>
       </set>
       <set comment="band 7">
        <r>  0.0404  0.0526  0.0251 </r>
        <r>  0.0404  0.0526  0.0251 </r>
       </set>
       <set comment="band 8">
        <r>  0.0366  0.0677  0.0257 </r>
        <r>  0.0366  0.0677  0.0257 </r>
       </set>
      </set>
      <set comment="kpoint 68">
       <set comment="band 1">
        <r>  0.0574  0.0288  0.0019 </r>
        <r>  0.0574  0.0288  0.0019 </r>
       </set>
       <set comment="band 2">
        <r>  0.0494  0.0350  0.0027 </r>
        <r>  0.0494  0.0350  0.0027 </r>
       </set>
       <set comment="band 3">
        <r>  0.0392  0.0408  0.0131 </r>
        <r>  0.0392  0.0408  0.0131 </r>
       </set>
       <set comment="band 4">
        <r>  0.0326  0.0446  0.0153 </r>
        <r>  0.0326  0.0446  0.0153 </r>
       </set>
       <set comment="band 5">
        <r>  0.0067  0.0524  0.0323 </r>
        <r>  0.0067  0.0524  0.0323 </r>
       </set>
       <set comment="band 6">
        <r>  0.0148  0.0595  0.0312 </r>
        <r>  0.0148  0.0595  0.0312 </r>
       </set>
       <set comment="band 7">
        <r>  0.0478  0.0563  0.0204 </r>
        <r>  0.0478  0.0563  0.0204 </r>
       </set>
       <set comment="band 8">
        <r>  0.0168  0.0614  0.0400 </r>
        <r>  0.0168  0.0614  0.0400 </r>
       </set>
      </set>
      <set comment="kpoint 69">
       <set comment="band 1">
        <r>  0.0419  0.0406  0.0031 </r>
        <r>  0.0419  0.0406  0.0031 </r>
       </set>
       <set comment="band 2">
        <r>  0.0206  0.0559  0.0026 </r>
        <r>  0.0206  0.0559  0.0026 </r>
       </set>
       <set comment="band 3">
        <r>  0.0711  0.0194  0.0107 </r>
        <r>  0.0711  0.0194  0.0107 </r>
       </set>
       <set comment="band 4">
        <r>  0.0502  0.0341  0.0107 </r>
        <r>  0.0502  0.0341  0.0107 </r>
       </set>
       <set comment="band 5">
        <r>  0.0179  0.0531  0.0278 </r>
        <r>  0.0179  0.0531  0.0278 </r>
       </set>
       <set comment="band 6">
        <r>  0.0156  0.0565  0.0311 </r>
        <r>  0.0156  0.0565  0.0311 </r>
       </set>
       <set comment="band 7">
        <r>  0.0254  0.0590  0.0311 </r>
        <r>  0.0254  0.0590  0.0311 </r>
       </set>
       <set comment="band 8">
        <r>  0.0063  0.0407  0.0567 </r>
        <r>  0.0063  0.0407  0.0567 </r>
       </set>
      </set>
      <set comment="kpoint 70">
       <set comment="band 1">
        <r>  0.0677  0.0202  0.0009 </r>
        <r>  0.0677  0.0202  0.0009 </r>
       </set>
       <set comment="band 2">
        <r>  0.0608  0.0259  0.0016 </r>
        <r>  0.0608  0.0259  0.0016 </r>
       </set>
       <set comment="band 3">
        <r>  0.0094  0.0477  0.0299 </r>
        <r>  0.0094  0.0477  0.0299 </r>
       </set>
       <set comment="band 4">
        <r>  0.0008  0.0505  0.0280 </r>
        <r>  0.0008  0.0505  0.0280 </r>
       </set>
       <set comment="band 5">
        <r>  0.0007  0.0676  0.0242 </r>
        <r>  0.0007  0.0676  0.0242 </r>
       </set>
       <set comment="band 6">
        <r>  0.0300  0.0546  0.0261 </r>
        <r>  0.0300  0.0546  0.0261 </r>
       </set>
       <set comment="band 7">
        <r>  0.0802  0.0419  0.0151 </r>
        <r>  0.0802  0.0419  0.0151 </r>
       </set>
       <set comment="band 8">
        <r>  0.0424  0.0608  0.0261 </r>
        <r>  0.0424  0.0608  0.0261 </r>
       </set>
      </set>
      <set comment="kpoint 71">
       <set comment="band 1">
        <r>  0.0599  0.0268  0.0017 </r>
        <r>  0.0599  0.0268  0.0017 </r>
       </set>
       <set comment="band 2">
        <r>  0.0525  0.0326  0.0025 </r>
        <r>  0.0525  0.0326  0.0025 </r>
       </set>
       <set comment="band 3">
        <r>  0.0242  0.0473  0.0176 </r>
        <r>  0.0242  0.0473  0.0176 </r>
       </set>
       <set comment="band 4">
        <r>  0.0121  0.0506  0.0215 </r>
        <r>  0.0121  0.0506  0.0215 </r>
       </set>
       <set comment="band 5">
        <r>  0.0342  0.0515  0.0192 </r>
        <r>  0.0342  0.0515  0.0192 </r>
       </set>
       <set comment="band 6">
        <r>  0.0287  0.0539  0.0226 </r>
        <r>  0.0287  0.0539  0.0226 </r>
       </set>
       <set comment="band 7">
        <r>  0.0580  0.0465  0.0217 </r>
        <r>  0.0580  0.0465  0.0217 </r>
       </set>
       <set comment="band 8">
        <r>  0.0290  0.0623  0.0326 </r>
        <r>  0.0290  0.0623  0.0326 </r>
       </set>
      </set>
      <set comment="kpoint 72">
       <set comment="band 1">
        <r>  0.0485  0.0356  0.0029 </r>
        <r>  0.0485  0.0356  0.0029 </r>
       </set>
       <set comment="band 2">
        <r>  0.0380  0.0432  0.0038 </r>
        <r>  0.0380  0.0432  0.0038 </r>
       </set>
       <set comment="band 3">
        <r>  0.0446  0.0372  0.0116 </r>
        <r>  0.0446  0.0372  0.0116 </r>
       </set>
       <set comment="band 4">
        <r>  0.0328  0.0439  0.0135 </r>
        <r>  0.0328  0.0439  0.0135 </r>
       </set>
       <set comment="band 5">
        <r>  0.0387  0.0467  0.0186 </r>
        <r>  0.0387  0.0467  0.0186 </r>
       </set>
       <set comment="band 6">
        <r>  0.0322  0.0505  0.0214 </r>
        <r>  0.0322  0.0505  0.0214 </r>
       </set>
       <set comment="band 7">
        <r>  0.0388  0.0535  0.0282 </r>
        <r>  0.0388  0.0535  0.0282 </r>
       </set>
       <set comment="band 8">
        <r>  0.0152  0.0755  0.0336 </r>
        <r>  0.0152  0.0755  0.0336 </r>
       </set>
      </set>
      <set comment="kpoint 73">
       <set comment="band 1">
        <r>  0.0040  0.0625  0.0032 </r>
        <r>  0.0040  0.0625  0.0032 </r>
       </set>
       <set comment="band 2">
        <r>  0.0349  0.0500  0.0038 </r>
        <r>  0.0349  0.0500  0.0038 </r>
       </set>
       <set comment="band 3">
        <r>  0.0540  0.0261  0.0112 </r>
        <r>  0.0540  0.0261  0.0112 </r>
       </set>
       <set comment="band 4">
        <r>  0.0751  0.0217  0.0103 </r>
        <r>  0.0751  0.0217  0.0103 </r>
       </set>
       <set comment="band 5">
        <r>  0.0397  0.0457  0.0183 </r>
        <r>  0.0397  0.0457  0.0183 </r>
       </set>
       <set comment="band 6">
        <r>  0.0335  0.0495  0.0210 </r>
        <r>  0.0335  0.0495  0.0210 </r>
       </set>
       <set comment="band 7">
        <r>  0.0122  0.0489  0.0403 </r>
        <r>  0.0122  0.0489  0.0403 </r>
       </set>
       <set comment="band 8">
        <r>  0.0382  0.0741  0.0284 </r>
        <r>  0.0382  0.0741  0.0284 </r>
       </set>
      </set>
      <set comment="kpoint 74">
       <set comment="band 1">
        <r>  0.0502  0.0343  0.0029 </r>
        <r>  0.0502  0.0343  0.0029 </r>
       </set>
       <set comment="band 2">
        <r>  0.0413  0.0407  0.0039 </r>
        <r>  0.0413  0.0407  0.0039 </r>
       </set>
       <set comment="band 3">
        <r>  0.0014  0.0552  0.0163 </r>
        <r>  0.0014  0.0552  0.0163 </r>
       </set>
       <set comment="band 4">
        <r>  0.0280  0.0470  0.0161 </r>
        <r>  0.0280  0.0470  0.0161 </r>
       </set>
       <set comment="band 5">
        <r>  0.0475  0.0423  0.0146 </r>
        <r>  0.0475  0.0423  0.0146 </r>
       </set>
       <set comment="band 6">
        <r>  0.0721  0.0364  0.0138 </r>
        <r>  0.0721  0.0364  0.0138 </r>
       </set>
       <set comment="band 7">
        <r>  0.0414  0.0520  0.0278 </r>
        <r>  0.0414  0.0520  0.0278 </r>
       </set>
       <set comment="band 8">
        <r>  0.0198  0.0716  0.0341 </r>
        <r>  0.0198  0.0716  0.0341 </r>
       </set>
      </set>
      <set comment="kpoint 75">
       <set comment="band 1">
        <r>  0.0345  0.0454  0.0046 </r>
        <r>  0.0345  0.0454  0.0046 </r>
       </set>
       <set comment="band 2">
        <r>  0.0144  0.0590  0.0049 </r>
        <r>  0.0144  0.0590  0.0049 </r>
       </set>
       <set comment="band 3">
        <r>  0.0479  0.0338  0.0110 </r>
        <r>  0.0479  0.0338  0.0110 </r>
       </set>
       <set comment="band 4">
        <r>  0.0205  0.0492  0.0123 </r>
        <r>  0.0205  0.0492  0.0123 </r>
       </set>
       <set comment="band 5">
        <r>  0.0783  0.0270  0.0124 </r>
        <r>  0.0783  0.0270  0.0124 </r>
       </set>
       <set comment="band 6">
        <r>  0.0562  0.0381  0.0147 </r>
        <r>  0.0562  0.0381  0.0147 </r>
       </set>
       <set comment="band 7">
        <r>  0.0283  0.0573  0.0337 </r>
        <r>  0.0283  0.0573  0.0337 </r>
       </set>
       <set comment="band 8">
        <r>  0.0156  0.0859  0.0291 </r>
        <r>  0.0156  0.0859  0.0291 </r>
       </set>
      </set>
      <set comment="kpoint 76">
       <set comment="band 1">
        <r>  0.0103  0.0648  0.0060 </r>
        <r>  0.0103  0.0648  0.0060 </r>
       </set>
       <set comment="band 2">
        <r>  0.0103  0.0648  0.0060 </r>
        <r>  0.0103  0.0648  0.0060 </r>
       </set>
       <set comment="band 3">
        <r>  0.0000  0.0546  0.0095 </r>
        <r>  0.0000  0.0546  0.0095 </r>
       </set>
       <set comment="band 4">
        <r>  0.0000  0.0530  0.0124 </r>
        <r>  0.0000  0.0530  0.0124 </r>
       </set>
       <set comment="band 5">
        <r>  0.1182  0.0068  0.0112 </r>
        <r>  0.1182  0.0068  0.0112 </r>
       </set>
       <set comment="band 6">
        <r>  0.1182  0.0068  0.0112 </r>
        <r>  0.1182  0.0068  0.0112 </r>
       </set>
       <set comment="band 7">
        <r>  0.0000  0.0242  0.0585 </r>
        <r>  0.0000  0.0242  0.0585 </r>
       </set>
       <set comment="band 8">
        <r>  0.0309  0.1056  0.0214 </r>
        <r>  0.0261  0.0956  0.0224 </r>
       </set>
      </set>
     </set>
    </set>
   </array>
  </projected>
 </calculation>
 <structure name="finalpos" >
  <crystal>
   <varray name="basis" >
    <v>       3.20919287       0.00000000       0.00000000 </v>
    <v>      -1.60459644       2.77924256       0.00000000 </v>
    <v>      -0.00000000      -0.00000000       5.12546325 </v>
   </varray>
   <i name="volume">     45.71464947 </i>
   <varray name="rec_basis" >
    <v>       0.31160483       0.17990513       0.00000000 </v>
    <v>      -0.00000000       0.35981026       0.00000000 </v>
    <v>      -0.00000000      -0.00000000       0.19510432 </v>
   </varray>
  </crystal>
  <varray name="positions" >
   <v>       0.33333333       0.66666667       0.25000000 </v>
   <v>       0.66666667       0.33333333       0.75000000 </v>
  </varray>
 </structure>
</modeling>
