unknown system                          
           1
     3.172023    0.000000    0.000000
    -1.586012    2.747053    0.000000
     0.000000    0.000000    5.141205
   Mg
     2
Direct configuration=     1
   0.33333333  0.66666667  0.25000000
   0.66666667  0.33333333  0.75000000
unknown system                          
           1
     3.194137    0.000000    0.000000
    -1.597069    2.766204    0.000000
     0.000000   -0.000000    5.147365
   Mg
     2
Direct configuration=     2
   0.33333333  0.66666667  0.25000000
   0.66666667  0.33333333  0.75000000
unknown system                          
           1
     3.205471    0.000000    0.000000
    -1.602736    2.776020    0.000000
     0.000000   -0.000000    5.150522
   Mg
     2
Direct configuration=     3
   0.33333333  0.66666667  0.25000000
   0.66666667  0.33333333  0.75000000
unknown system                          
           1
     3.204973    0.000000    0.000000
    -1.602486    2.775588    0.000000
     0.000000   -0.000000    5.150384
   Mg
     2
Direct configuration=     4
   0.33333333  0.66666667  0.25000000
   0.66666667  0.33333333  0.75000000
unknown system                          
           1
     3.207275    0.000000    0.000000
    -1.603638    2.777582    0.000000
    -0.000000   -0.000000    5.136787
   Mg
     2
Direct configuration=     5
   0.33333333  0.66666667  0.25000000
   0.66666667  0.33333333  0.75000000
unknown system                          
           1
     3.209193    0.000000    0.000000
    -1.604596    2.779243    0.000000
    -0.000000   -0.000000    5.125463
   Mg
     2
Direct configuration=     6
   0.33333333  0.66666667  0.25000000
   0.66666667  0.33333333  0.75000000
