    4    4    1    1
  0.1163531E+02  0.3207507E-09  0.3207507E-09  0.5223628E-09  0.5000000E-15
  1.000000000000000E-004
  CAR 
 GaN                                     
     36    160     32
 
  0.0000000E+00  0.0000000E+00  0.5000000E+00  0.6250000E-02
      1        -10.171365   1.000000
      2        -10.171365   1.000000
      3         -8.273376   1.000000
      4         -8.273376   1.000000
      5         -8.273367   1.000000
      6         -8.273367   1.000000
      7         -7.997583   1.000000
      8         -7.997583   1.000000
      9         -7.997579   1.000000
     10         -7.997579   1.000000
     11         -7.952066   1.000000
     12         -7.952066   1.000000
     13          1.307698   1.000000
     14          1.307698   1.000000
     15          4.599037   1.000027
     16          4.599038   1.000027
     17          4.599722   1.000028
     18          4.599723   1.000028
     19          9.245030  -0.000000
     20          9.245030  -0.000000
     21         13.490054   0.000000
     22         13.490054   0.000000
     23         15.417099   0.000000
     24         15.417100   0.000000
     25         15.417230   0.000000
     26         15.417231   0.000000
     27         21.270000   0.000000
     28         21.270000   0.000000
     29         23.421590   0.000000
     30         23.421591   0.000000
     31         23.421756   0.000000
     32         23.421757   0.000000
 
  0.0000000E+00  0.0000000E+00  0.4871795E+00  0.6250000E-02
      1        -10.189872   1.000000
      2        -10.153230   1.000000
      3         -8.274553   1.000000
      4         -8.274543   1.000000
      5         -8.272171   1.000000
      6         -8.272162   1.000000
      7         -7.999440   1.000000
      8         -7.999436   1.000000
      9         -7.995753   1.000000
     10         -7.995749   1.000000
     11         -7.977108   1.000000
     12         -7.925785   1.000000
     13          1.190321   1.000000
     14          1.425417   1.000000
     15          4.578687   1.000014
     16          4.579369   1.000015
     17          4.619432   1.000050
     18          4.620119   1.000051
     19          9.214007  -0.000000
     20          9.272776  -0.000000
     21         13.478163   0.000000
     22         13.506387   0.000000
     23         15.384732   0.000000
     24         15.384859   0.000000
     25         15.450521   0.000000
     26         15.450655   0.000000
     27         21.201092   0.000000
     28         21.339736   0.000000
     29         23.319593   0.000000
     30         23.319747   0.000000
     31         23.520991   0.000000
     32         23.521167   0.000000
 
  0.0000000E+00  0.0000000E+00  0.4743590E+00  0.6250000E-02
      1        -10.208708   1.000000
      2        -10.135506   1.000000
      3         -8.275698   1.000000
      4         -8.275689   1.000000
      5         -8.270939   1.000000
      6         -8.270930   1.000000
      7         -8.001321   1.000000
      8         -8.001317   1.000000
      9         -8.000921   1.000000
     10         -7.993952   1.000000
     11         -7.993948   1.000000
     12         -7.898261   1.000000
     13          1.073363   1.000000
     14          1.543401   1.000000
     15          4.558414   1.000008
     16          4.559094   1.000008
     17          4.639839   1.000089
     18          4.640528   1.000090
     19          9.179678  -0.000000
     20          9.297299  -0.000000
     21         13.470614   0.000000
     22         13.527229   0.000000
     23         15.353447   0.000000
     24         15.353571   0.000000
     25         15.484962   0.000000
     26         15.485100   0.000000
     27         21.133096   0.000000
     28         21.410206   0.000000
     29         23.215728   0.000000
     30         23.215872   0.000000
     31         23.616942   0.000000
     32         23.617130   0.000000
 
  0.0000000E+00  0.0000000E+00  0.4615385E+00  0.6250000E-02
      1        -10.227827   1.000000
      2        -10.118229   1.000000
      3         -8.276810   1.000000
      4         -8.276801   1.000000
      5         -8.269683   1.000000
      6         -8.269673   1.000000
      7         -8.023521   1.000000
      8         -8.003222   1.000000
      9         -8.003218   1.000000
     10         -7.992182   1.000000
     11         -7.992178   1.000000
     12         -7.869493   1.000000
     13          0.956909   1.000000
     14          1.661575   1.000000
     15          4.538251   1.000004
     16          4.538928   1.000004
     17          4.660223   1.000155
     18          4.660915   1.000158
     19          9.142038  -0.000000
     20          9.318677  -0.000000
     21         13.467281   0.000000
     22         13.552613   0.000000
     23         15.323269   0.000000
     24         15.323390   0.000000
     25         15.520386   0.000000
     26         15.520527   0.000000
     27         21.066089   0.000000
     28         21.481308   0.000000
     29         23.110631   0.000000
     30         23.110765   0.000000
     31         23.708468   0.000000
     32         23.708668   0.000000
 
  0.0000000E+00  0.0000000E+00  0.4487179E+00  0.6250000E-02
      1        -10.247181   1.000000
      2        -10.101438   1.000000
      3         -8.277888   1.000000
      4         -8.277879   1.000000
      5         -8.268404   1.000000
      6         -8.268395   1.000000
      7         -8.044929   1.000000
      8         -8.005140   1.000000
      9         -8.005136   1.000000
     10         -7.990444   1.000000
     11         -7.990441   1.000000
     12         -7.839491   1.000000
     13          0.841043   1.000000
     14          1.779863   1.000000
     15          4.518229   1.000002
     16          4.518904   1.000002
     17          4.680552   1.000266
     18          4.681246   1.000271
     19          9.101108  -0.000000
     20          9.337012  -0.000000
     21         13.468006   0.000000
     22         13.582545   0.000000
     23         15.294218   0.000000
     24         15.294336   0.000000
     25         15.556747   0.000000
     26         15.556892   0.000000
     27         21.000139   0.000000
     28         21.552929   0.000000
     29         23.004847   0.000000
     30         23.004971   0.000000
     31         23.794458   0.000000
     32         23.794669   0.000000
 
  0.0000000E+00  0.0000000E+00  0.4358974E+00  0.6250000E-02
      1        -10.266721   1.000000
      2        -10.085158   1.000000
      3         -8.278930   1.000000
      4         -8.278921   1.000000
      5         -8.267107   1.000000
      6         -8.267097   1.000000
      7         -8.065171   1.000000
      8         -8.007072   1.000000
      9         -8.007068   1.000000
     10         -7.988743   1.000000
     11         -7.988740   1.000000
     12         -7.808272   1.000000
     13          0.725856   1.000000
     14          1.898196   1.000000
     15          4.498380   1.000001
     16          4.499052   1.000001
     17          4.700791   1.000443
     18          4.701488   1.000451
     19          9.056930  -0.000000
     20          9.352426  -0.000000
     21         13.472609   0.000000
     22         13.616997   0.000000
     23         15.266312   0.000000
     24         15.266427   0.000000
     25         15.594001   0.000000
     26         15.594149   0.000000
     27         20.935307   0.000000
     28         21.624949   0.000000
     29         22.898848   0.000000
     30         22.898964   0.000000
     31         23.873679   0.000000
     32         23.873901   0.000000
 
  0.0000000E+00  0.0000000E+00  0.4230769E+00  0.6250000E-02
      1        -10.286394   1.000000
      2        -10.069412   1.000000
      3         -8.279935   1.000000
      4         -8.279926   1.000000
      5         -8.265793   1.000000
      6         -8.265783   1.000000
      7         -8.084272   1.000000
      8         -8.009014   1.000000
      9         -8.009010   1.000000
     10         -7.987081   1.000000
     11         -7.987077   1.000000
     12         -7.775858   1.000000
     13          0.611440   1.000000
     14          2.016503   1.000000
     15          4.478736   1.000000
     16          4.479406   1.000000
     17          4.720908   1.000719
     18          4.721607   1.000731
     19          9.009569  -0.000000
     20          9.365063  -0.000000
     21         13.480882   0.000000
     22         13.655912   0.000000
     23         15.239563   0.000000
     24         15.239675   0.000000
     25         15.632093   0.000000
     26         15.632245   0.000000
     27         20.871648   0.000000
     28         21.697233   0.000000
     29         22.793046   0.000000
     30         22.793154   0.000000
     31         23.944791   0.000000
     32         23.945025   0.000000
 
  0.0000000E+00  0.0000000E+00  0.4102564E+00  0.6250000E-02
      1        -10.306151   1.000000
      2        -10.054221   1.000000
      3         -8.280902   1.000000
      4         -8.280893   1.000000
      5         -8.264465   1.000000
      6         -8.264455   1.000000
      7         -8.102268   1.000000
      8         -8.010963   1.000000
      9         -8.010960   1.000000
     10         -7.985459   1.000000
     11         -7.985456   1.000000
     12         -7.742283   1.000000
     13          0.497891   1.000000
     14          2.134716   1.000000
     15          4.459327   1.000000
     16          4.459995   1.000000
     17          4.740868   1.001138
     18          4.741570   1.001156
     19          8.959109  -0.000000
     20          9.375080  -0.000000
     21         13.492598   0.000000
     22         13.699208   0.000000
     23         15.213980   0.000000
     24         15.214089   0.000000
     25         15.670968   0.000000
     26         15.671123   0.000000
     27         20.809211   0.000000
     28         21.769640   0.000000
     29         22.687802   0.000000
     30         22.687901   0.000000
     31         24.006413   0.000000
     32         24.006657   0.000000
 
  0.0000000E+00  0.0000000E+00  0.3974359E+00  0.6250000E-02
      1        -10.325941   1.000000
      2        -10.039602   1.000000
      3         -8.281830   1.000000
      4         -8.281821   1.000000
      5         -8.263127   1.000000
      6         -8.263117   1.000000
      7         -8.119191   1.000000
      8         -8.012915   1.000000
      9         -8.012911   1.000000
     10         -7.983880   1.000000
     11         -7.983876   1.000000
     12         -7.707589   1.000000
     13          0.385311   1.000000
     14          2.252766   1.000000
     15          4.440184   1.000000
     16          4.440850   1.000000
     17          4.760638   1.001751
     18          4.761342   1.001777
     19          8.905650  -0.000000
     20          9.382646  -0.000000
     21         13.507515   0.000000
     22         13.746775   0.000000
     23         15.189566   0.000000
     24         15.189672   0.000000
     25         15.710562   0.000000
     26         15.710721   0.000000
     27         20.748036   0.000000
     28         21.842013   0.000000
     29         22.583433   0.000000
     30         22.583524   0.000000
     31         24.057202   0.000000
     32         24.057455   0.000000
 
  0.0000000E+00  0.0000000E+00  0.3846154E+00  0.6250000E-02
      1        -10.345709   1.000000
      2        -10.025569   1.000000
      3         -8.282718   1.000000
      4         -8.282709   1.000000
      5         -8.261782   1.000000
      6         -8.261772   1.000000
      7         -8.135080   1.000000
      8         -8.014866   1.000000
      9         -8.014862   1.000000
     10         -7.982344   1.000000
     11         -7.982341   1.000000
     12         -7.671824   1.000000
     13          0.273802   1.000000
     14          2.370585   1.000000
     15          4.421337   1.000000
     16          4.422000   1.000000
     17          4.780184   1.002621
     18          4.780891   1.002659
     19          8.849307  -0.000000
     20          9.387943  -0.000000
     21         13.525377   0.000000
     22         13.798479   0.000000
     23         15.166323   0.000000
     24         15.166427   0.000000
     25         15.750806   0.000000
     26         15.750969   0.000000
     27         20.688160   0.000000
     28         21.914187   0.000000
     29         22.480220   0.000000
     30         22.480304   0.000000
     31         24.095974   0.000000
     32         24.096234   0.000000
 
  0.0000000E+00  0.0000000E+00  0.3717949E+00  0.6250000E-02
      1        -10.365397   1.000000
      2        -10.012131   1.000000
      3         -8.283566   1.000000
      4         -8.283557   1.000000
      5         -8.260433   1.000000
      6         -8.260422   1.000000
      7         -8.149973   1.000000
      8         -8.016813   1.000000
      9         -8.016809   1.000000
     10         -7.980855   1.000000
     11         -7.980851   1.000000
     12         -7.635048   1.000000
     13          0.163474   1.000000
     14          2.488105   1.000000
     15          4.402813   1.000000
     16          4.403474   1.000000
     17          4.799474   1.003816
     18          4.800183   1.003867
     19          8.790209  -0.000000
     20          9.391157  -0.000000
     21         13.545914   0.000000
     22         13.854162   0.000000
     23         15.144249   0.000000
     24         15.144350   0.000000
     25         15.791627   0.000000
     26         15.791793   0.000000
     27         20.629613   0.000000
     28         21.985986   0.000000
     29         22.378418   0.000000
     30         22.378494   0.000000
     31         24.121845   0.000000
     32         24.122111   0.000000
 
  0.0000000E+00  0.0000000E+00  0.3589744E+00  0.6250000E-02
      1        -10.384780   1.000000
      2         -9.999267   1.000000
      3         -8.284321   1.000000
      4         -8.284312   1.000000
      5         -8.259032   1.000000
      6         -8.259021   1.000000
      7         -8.163777   1.000000
      8         -8.018711   1.000000
      9         -8.018707   1.000000
     10         -7.979398   1.000000
     11         -7.979395   1.000000
     12         -7.597255   1.000000
     13          0.054550   1.000000
     14          2.606647   1.000000
     15          4.384824   1.000000
     16          4.385482   1.000000
     17          4.819218   1.005472
     18          4.819926   1.005540
     19          8.729239  -0.000000
     20          9.392666  -0.000000
     21         13.569911   0.000000
     22         13.914180   0.000000
     23         15.123344   0.000000
     24         15.123442   0.000000
     25         15.833122   0.000000
     26         15.833291   0.000000
     27         20.572505   0.000000
     28         22.057410   0.000000
     29         22.278306   0.000000
     30         22.278376   0.000000
     31         24.134435   0.000000
     32         24.134703   0.000000
 
  0.0000000E+00  0.0000000E+00  0.3461538E+00  0.6250000E-02
      1        -10.404154   1.000000
      2         -9.987036   1.000000
      3         -8.285088   1.000000
      4         -8.285079   1.000000
      5         -8.257685   1.000000
      6         -8.257675   1.000000
      7         -8.176800   1.000000
      8         -8.020635   1.000000
      9         -8.020631   1.000000
     10         -7.978003   1.000000
     11         -7.978000   1.000000
     12         -7.558674   1.000000
     13         -0.053076   1.000000
     14          2.723364   1.000000
     15          4.367027   1.000000
     16          4.367684   1.000000
     17          4.837883   1.007518
     18          4.838593   1.007606
     19          8.665026  -0.000000
     20          9.392266  -0.000000
     21         13.594973   0.000000
     22         13.977223   0.000000
     23         15.103583   0.000000
     24         15.103679   0.000000
     25         15.874851   0.000000
     26         15.875024   0.000000
     27         20.516678   0.000000
     28         22.127879   0.000000
     29         22.179983   0.000000
     30         22.180046   0.000000
     31         24.133632   0.000000
     32         24.133902   0.000000
 
  0.0000000E+00  0.0000000E+00  0.3333333E+00  0.6250000E-02
      1        -10.423251   1.000000
      2         -9.975311   1.000000
      3         -8.285776   1.000000
      4         -8.285767   1.000000
      5         -8.256306   1.000000
      6         -8.256296   1.000000
      7         -8.188945   1.000000
      8         -8.022517   1.000000
      9         -8.022513   1.000000
     10         -7.976548   1.000000
     11         -7.976545   1.000000
     12         -7.519258   1.000000
     13         -0.158902   1.000000
     14          2.839933   1.000000
     15          4.350518   1.000000
     16          4.351169   1.000000
     17          4.856542   1.010092
     18          4.857253   1.010201
     19          8.598667  -0.000000
     20          9.390737  -0.000000
     21         13.623928   0.000000
     22         14.043799   0.000000
     23         15.084978   0.000000
     24         15.085071   0.000000
     25         15.917260   0.000000
     26         15.917436   0.000000
     27         20.462260   0.000000
     28         22.083728   0.000000
     29         22.083784   0.000000
     30         22.197662   0.000000
     31         24.120552   0.000000
     32         24.120820   0.000000
 
  0.0000000E+00  0.0000000E+00  0.3205128E+00  0.6250000E-02
      1        -10.442098   1.000000
      2         -9.964287   1.000000
      3         -8.286461   1.000000
      4         -8.286453   1.000000
      5         -8.254977   1.000000
      6         -8.254967   1.000000
      7         -8.200257   1.000000
      8         -8.024403   1.000000
      9         -8.024399   1.000000
     10         -7.975254   1.000000
     11         -7.975251   1.000000
     12         -7.479219   1.000000
     13         -0.263333   1.000000
     14          2.955574   1.000000
     15          4.333535   1.000000
     16          4.334184   1.000000
     17          4.874457   1.013087
     18          4.875171   1.013216
     19          8.529978  -0.000000
     20          9.387461  -0.000000
     21         13.652419   0.000000
     22         14.113380   0.000000
     23         15.067476   0.000000
     24         15.067566   0.000000
     25         15.959527   0.000000
     26         15.959706   0.000000
     27         20.409227   0.000000
     28         21.989655   0.000000
     29         21.989706   0.000000
     30         22.265966   0.000000
     31         24.095221   0.000000
     32         24.095486   0.000000
 
  0.0000000E+00  0.0000000E+00  0.3076923E+00  0.6250000E-02
      1        -10.460608   1.000000
      2         -9.953859   1.000000
      3         -8.287106   1.000000
      4         -8.287098   1.000000
      5         -8.253662   1.000000
      6         -8.253651   1.000000
      7         -8.210775   1.000000
      8         -8.026262   1.000000
      9         -8.026258   1.000000
     10         -7.974010   1.000000
     11         -7.974007   1.000000
     12         -7.438606   1.000000
     13         -0.365956   1.000000
     14          3.070566   1.000000
     15          4.317011   1.000000
     16          4.317659   1.000000
     17          4.891954   1.016487
     18          4.892670   1.016635
     19          8.459299  -0.000000
     20          9.383034  -0.000000
     21         13.682199   0.000000
     22         14.185866   0.000000
     23         15.051073   0.000000
     24         15.051161   0.000000
     25         16.001906   0.000000
     26         16.002089   0.000000
     27         20.357607   0.000000
     28         21.897959   0.000000
     29         21.898005   0.000000
     30         22.332854   0.000000
     31         24.059512   0.000000
     32         24.059772   0.000000
 
  0.0000000E+00  0.0000000E+00  0.2948718E+00  0.6250000E-02
      1        -10.478908   1.000000
      2         -9.944041   1.000000
      3         -8.287751   1.000000
      4         -8.287742   1.000000
      5         -8.252372   1.000000
      6         -8.252361   1.000000
      7         -8.220568   1.000000
      8         -8.028178   1.000000
      9         -8.028173   1.000000
     10         -7.972853   1.000000
     11         -7.972850   1.000000
     12         -7.397570   1.000000
     13         -0.466889   1.000000
     14          3.183826   1.000000
     15          4.300794   1.000000
     16          4.301439   1.000000
     17          4.908460   1.020053
     18          4.909177   1.020214
     19          8.385285  -0.000000
     20          9.377504  -0.000000
     21         13.711972   0.000000
     22         14.260242   0.000000
     23         15.035660   0.000000
     24         15.035746   0.000000
     25         16.044242   0.000000
     26         16.044429   0.000000
     27         20.307148   0.000000
     28         21.808360   0.000000
     29         21.808400   0.000000
     30         22.397869   0.000000
     31         24.014789   0.000000
     32         24.015044   0.000000
 
  0.0000000E+00  0.0000000E+00  0.2820513E+00  0.6250000E-02
      1        -10.496729   1.000000
      2         -9.934792   1.000000
      3         -8.288349   1.000000
      4         -8.288340   1.000000
      5         -8.251175   1.000000
      6         -8.251164   1.000000
      7         -8.229622   1.000000
      8         -8.030032   1.000000
      9         -8.030028   1.000000
     10         -7.971745   1.000000
     11         -7.971742   1.000000
     12         -7.356195   1.000000
     13         -0.565526   1.000000
     14          3.297052   1.000000
     15          4.284813   1.000000
     16          4.285465   1.000000
     17          4.923310   1.023448
     18          4.924056   1.023621
     19          8.310717  -0.000000
     20          9.371278  -0.000000
     21         13.743245   0.000000
     22         14.337633   0.000000
     23         15.021357   0.000000
     24         15.021442   0.000000
     25         16.086283   0.000000
     26         16.086476   0.000000
     27         20.258369   0.000000
     28         21.721476   0.000000
     29         21.721516   0.000000
     30         22.461172   0.000000
     31         23.962718   0.000000
     32         23.962968   0.000000
 
  0.0000000E+00  0.0000000E+00  0.2692308E+00  0.6250000E-02
      1        -10.513938   1.000000
      2         -9.926082   1.000000
      3         -8.288878   1.000000
      4         -8.288870   1.000000
      5         -8.249923   1.000000
      6         -8.249912   1.000000
      7         -8.237991   1.000000
      8         -8.031788   1.000000
      9         -8.031784   1.000000
     10         -7.970656   1.000000
     11         -7.970653   1.000000
     12         -7.314615   1.000000
     13         -0.661829   1.000000
     14          3.409517   1.000000
     15          4.269797   1.000000
     16          4.270448   1.000000
     17          4.939324   1.027129
     18          4.940073   1.027297
     19          8.235086  -0.000000
     20          9.364402  -0.000000
     21         13.775247   0.000000
     22         14.417152   0.000000
     23         15.008109   0.000000
     24         15.008192   0.000000
     25         16.128287   0.000000
     26         16.128484   0.000000
     27         20.211020   0.000000
     28         21.637835   0.000000
     29         21.637870   0.000000
     30         22.522421   0.000000
     31         23.905178   0.000000
     32         23.905422   0.000000
 
  0.0000000E+00  0.0000000E+00  0.2564103E+00  0.6250000E-02
      1        -10.530632   1.000000
      2         -9.917919   1.000000
      3         -8.289370   1.000000
      4         -8.289362   1.000000
      5         -8.248700   1.000000
      6         -8.248689   1.000000
      7         -8.245719   1.000000
      8         -8.033500   1.000000
      9         -8.033496   1.000000
     10         -7.969620   1.000000
     11         -7.969617   1.000000
     12         -7.272998   1.000000
     13         -0.755702   1.000000
     14          3.520972   1.000000
     15          4.255332   1.000000
     16          4.255981   1.000000
     17          4.954801   1.030454
     18          4.955552   1.030605
     19          8.158175  -0.000000
     20          9.357009  -0.000000
     21         13.807505   0.000000
     22         14.498357   0.000000
     23         14.995851   0.000000
     24         14.995932   0.000000
     25         16.169912   0.000000
     26         16.170113   0.000000
     27         20.165093   0.000000
     28         21.557143   0.000000
     29         21.557173   0.000000
     30         22.581338   0.000000
     31         23.843352   0.000000
     32         23.843589   0.000000
 
  0.0000000E+00  0.0000000E+00  0.2435897E+00  0.6250000E-02
      1        -10.546765   1.000000
      2         -9.910287   1.000000
      3         -8.289825   1.000000
      4         -8.289817   1.000000
      5         -8.252842   1.000000
      6         -8.247509   1.000000
      7         -8.247498   1.000000
      8         -8.035164   1.000000
      9         -8.035160   1.000000
     10         -7.968634   1.000000
     11         -7.968631   1.000000
     12         -7.231502   1.000000
     13         -0.846967   1.000000
     14          3.631306   1.000000
     15          4.241437   1.000000
     16          4.242085   1.000000
     17          4.969714   1.033138
     18          4.970467   1.033253
     19          8.080183  -0.000000
     20          9.349237  -0.000000
     21         13.839781   0.000000
     22         14.580889   0.000000
     23         14.984550   0.000000
     24         14.984628   0.000000
     25         16.211018   0.000000
     26         16.211222   0.000000
     27         20.120591   0.000000
     28         21.479525   0.000000
     29         21.479551   0.000000
     30         22.637707   0.000000
     31         23.778539   0.000000
     32         23.778768   0.000000
 
  0.0000000E+00  0.0000000E+00  0.2307692E+00  0.6250000E-02
      1        -10.562296   1.000000
      2         -9.903173   1.000000
      3         -8.290245   1.000000
      4         -8.290237   1.000000
      5         -8.259392   1.000000
      6         -8.246353   1.000000
      7         -8.246341   1.000000
      8         -8.036775   1.000000
      9         -8.036771   1.000000
     10         -7.967702   1.000000
     11         -7.967699   1.000000
     12         -7.190296   1.000000
     13         -0.935442   1.000000
     14          3.740392   1.000000
     15          4.228134   1.000000
     16          4.228780   1.000000
     17          4.984035   1.034891
     18          4.984790   1.034954
     19          8.001313  -0.000000
     20          9.341208  -0.000000
     21         13.871847   0.000000
     22         14.664354   0.000000
     23         14.974166   0.000000
     24         14.974243   0.000000
     25         16.251455   0.000000
     26         16.251663   0.000000
     27         20.077517   0.000000
     28         21.405101   0.000000
     29         21.405122   0.000000
     30         22.691330   0.000000
     31         23.711893   0.000000
     32         23.712115   0.000000
 
  0.0000000E+00  0.0000000E+00  0.2179487E+00  0.6250000E-02
      1        -10.577191   1.000000
      2         -9.896559   1.000000
      3         -8.290631   1.000000
      4         -8.290622   1.000000
      5         -8.265403   1.000000
      6         -8.245236   1.000000
      7         -8.245224   1.000000
      8         -8.038329   1.000000
      9         -8.038325   1.000000
     10         -7.966822   1.000000
     11         -7.966819   1.000000
     12         -7.149562   1.000000
     13         -1.020936   1.000000
     14          3.848090   1.000000
     15          4.215442   1.000000
     16          4.216086   1.000000
     17          4.997739   1.035454
     18          4.998496   1.035445
     19          7.921783  -0.000000
     20          9.333041  -0.000000
     21         13.903486   0.000000
     22         14.748342   0.000000
     23         14.964665   0.000000
     24         14.964740   0.000000
     25         16.291074   0.000000
     26         16.291285   0.000000
     27         20.035878   0.000000
     28         21.333986   0.000000
     29         21.334002   0.000000
     30         22.742026   0.000000
     31         23.644432   0.000000
     32         23.644647   0.000000
 
  0.0000000E+00  0.0000000E+00  0.2051282E+00  0.6250000E-02
      1        -10.591475   1.000000
      2         -9.890432   1.000000
      3         -8.290991   1.000000
      4         -8.290983   1.000000
      5         -8.271064   1.000000
      6         -8.244163   1.000000
      7         -8.244151   1.000000
      8         -8.039858   1.000000
      9         -8.039853   1.000000
     10         -7.965995   1.000000
     11         -7.965992   1.000000
     12         -7.109489   1.000000
     13         -1.103251   1.000000
     14          3.953142   1.000000
     15          4.203377   1.000000
     16          4.204021   1.000000
     17          5.010616   1.034640
     18          5.011375   1.034544
     19          7.840732  -0.000000
     20          9.324839  -0.000000
     21         13.934485   0.000000
     22         14.831796   0.000000
     23         14.955993   0.000000
     24         14.956067   0.000000
     25         16.329714   0.000000
     26         16.329929   0.000000
     27         19.995578   0.000000
     28         21.266179   0.000000