 vasp.6.3.1 04May22 (build Jun 07 2022 20:23:04) complex                        
  
 executed on             LinuxIFC date 2024.03.07  02:51:41
 running on   32 total cores
 distrk:  each k-point on   32 cores,    1 groups
 distr:  one band on NCORE=   1 cores,   32 groups


--------------------------------------------------------------------------------------------------------


 INCAR:
   SYSTEM = GaN
   ISTART = 0
   ICHARG = 2
   ENCUT = 430
   ISMEAR = 0
   SIGMA = 0.05
   EDIFF = 1E-9

 POTCAR:    PAW_PBE Ga_d 06Jul2010                
 POTCAR:    PAW_PBE N 08Apr2002                   
 -----------------------------------------------------------------------------
|                                                                             |
|           W    W    AA    RRRRR   N    N  II  N    N   GGGG   !!!           |
|           W    W   A  A   R    R  NN   N  II  NN   N  G    G  !!!           |
|           W    W  A    A  R    R  N N  N  II  N N  N  G       !!!           |
|           W WW W  AAAAAA  RRRRR   N  N N  II  N  N N  G  GGG   !            |
|           WW  WW  A    A  R   R   N   NN  II  N   NN  G    G                |
|           W    W  A    A  R    R  N    N  II  N    N   GGGG   !!!           |
|                                                                             |
|     For optimal performance we recommend to set                             |
|       NCORE = 2 up to number-of-cores-per-socket                            |
|     NCORE specifies how many cores store one orbital (NPAR=cpu/NCORE).      |
|     This setting can greatly improve the performance of VASP for DFT.       |
|     The default, NCORE=1 might be grossly inefficient on modern             |
|     multi-core architectures or massively parallel machines. Do your        |
|     own testing! More info at https://www.vasp.at/wiki/index.php/NCORE      |
|     Unfortunately you need to use the default for GW and RPA                |
|     calculations (for HF NCORE is supported but not extensively tested      |
|     yet).                                                                   |
|                                                                             |
 -----------------------------------------------------------------------------

 POTCAR:    PAW_PBE Ga_d 06Jul2010                
   SHA256 =  a60ddf36e14f00ea098d9e3914b3745f1b7105e68786148f49ae384e44b4226c Ga_d/POTCAR           
   COPYR  = (c) Copyright 06Jul2010 Georg Kresse                                                    
   COPYR  = This file is part of the software VASP. Any use, copying, and all other rights are regul
   COPYR  = If you do not have a valid VASP license, you may not use, copy or distribute this file. 
   VRHFIN =Ga: s2p1                                                                                 
   LEXCH  = PE                                                                                      
   EATOM  =  2148.8298 eV,  157.9345 Ry                                                             
                                                                                                    
   TITEL  = PAW_PBE Ga_d 06Jul2010                                                                  
   LULTRA =        F    use ultrasoft PP ?                                                          
   IUNSCR =        1    unscreen: 0-lin 1-nonlin 2-no                                               
   RPACOR =    1.700    partial core radius                                                         
   POMASS =   69.723; ZVAL   =   13.000    mass and valenz                                          
   RCORE  =    2.300    outmost cutoff radius                                                       
   RWIGS  =    2.300; RWIGS  =    1.217    wigner-seitz radius (au A)                               
   ENMAX  =  282.691; ENMIN  =  212.018 eV                                                          
   ICORE  =        3    local potential                                                             
   LCOR   =        T    correct aug charges                                                         
   LPAW   =        T    paw PP                                                                      
   EAUG   =  490.690                                                                                
   DEXC   =    0.000                                                                                
   RMAX   =    2.341    core radius for proj-oper                                                   
   RAUG   =    1.300    factor for augmentation sphere                                              
   RDEP   =    2.413    radius for radial grids                                                     
   RDEPT  =    1.856    core radius for aug-charge                                                  
                                                                                                    
   Atomic configuration                                                                             
    9 entries                                                                                       
     n  l   j            E        occ.                                                              
     1  0  0.50    -10228.7831   2.0000                                                             
     2  0  0.50     -1262.1604   2.0000                                                             
     2  1  1.50     -1098.6333   6.0000                                                             
     3  0  0.50      -148.1110   2.0000                                                             
     3  1  1.50       -98.8436   6.0000                                                             
     3  2  2.50       -19.1549  10.0000                                                             
     4  0  0.50        -8.9483   2.0000                                                             
     4  1  0.50        -2.5791   1.0000                                                             
     4  3  2.50        -2.7416   0.0000                                                             
   Description                                                                                      
     l       E           TYP  RCUT    TYP  RCUT                                                     
     2    -19.1549037     23  2.300                                                                 
     2     -5.4423304     23  2.300                                                                 
     0     -8.9483111     23  2.300                                                                 
     0     68.0291300     23  2.300                                                                 
     1     -2.5790802     23  2.100                                                                 
     1     81.6349560     23  2.300                                                                 
     3      6.8029130     23  2.300                                                                 
  local pseudopotential read in
  partial core-charges read in
  partial kinetic energy density read in
  atomic valenz-charges read in
  non local Contribution for L=           2  read in
    real space projection operators read in
  non local Contribution for L=           2  read in
    real space projection operators read in
  non local Contribution for L=           0  read in
    real space projection operators read in
  non local Contribution for L=           0  read in
    real space projection operators read in
  non local Contribution for L=           1  read in
    real space projection operators read in
  non local Contribution for L=           1  read in
    real space projection operators read in
    PAW grid and wavefunctions read in
 
   number of l-projection  operators is LMAX  =           6
   number of lm-projection operators is LMMAX =          18
 
 POTCAR:    PAW_PBE N 08Apr2002                   
   SHA256 =  e053789ff3a61a86a1b75d8a110fcc91f86041011e7b0817c7c99e4e8a6349d7 N/POTCAR              
   COPYR  = (c) Copyright 08Apr2002 Georg Kresse                                                    
   COPYR  = This file is part of the software VASP. Any use, copying, and all other rights are regul
   COPYR  = If you do not have a valid VASP license, you may not use, copy or distribute this file. 
   VRHFIN =N: s2p3                                                                                  
   LEXCH  = PE                                                                                      
   EATOM  =   264.5486 eV,   19.4438 Ry                                                             
                                                                                                    
   TITEL  = PAW_PBE N 08Apr2002                                                                     
   LULTRA =        F    use ultrasoft PP ?                                                          
   IUNSCR =        1    unscreen: 0-lin 1-nonlin 2-no                                               
   RPACOR =    1.200    partial core radius                                                         
   POMASS =   14.001; ZVAL   =    5.000    mass and valenz                                          
   RCORE  =    1.500    outmost cutoff radius                                                       
   RWIGS  =    1.400; RWIGS  =    0.741    wigner-seitz radius (au A)                               
   ENMAX  =  400.000; ENMIN  =  300.000 eV                                                          
   ICORE  =        2    local potential                                                             
   LCOR   =        T    correct aug charges                                                         
   LPAW   =        T    paw PP                                                                      
   EAUG   =  627.112                                                                                
   DEXC   =    0.000                                                                                
   RMAX   =    1.529    core radius for proj-oper                                                   
   RAUG   =    1.300    factor for augmentation sphere                                              
   RDEP   =    1.514    radius for radial grids                                                     
   RDEPT  =    1.338    core radius for aug-charge                                                  
                                                                                                    
   Atomic configuration                                                                             
    4 entries                                                                                       
     n  l   j            E        occ.                                                              
     1  0  0.50      -384.7179   2.0000                                                             
     2  0  0.50       -18.5828   2.0000                                                             
     2  1  0.50        -7.0898   3.0000                                                             
     3  2  1.50        -6.8029   0.0000                                                             
   Description                                                                                      
     l       E           TYP  RCUT    TYP  RCUT                                                     
     0    -18.5828119     23  1.200                                                                 
     0    -13.5018863     23  1.200                                                                 
     1     -7.0897853     23  1.500                                                                 
     1      9.5240782     23  1.500                                                                 
     2     -6.8029130      7  1.500                                                                 
  local pseudopotential read in
  partial core-charges read in
  partial kinetic energy density read in
  atomic valenz-charges read in
  non local Contribution for L=           0  read in
    real space projection operators read in
  non local Contribution for L=           0  read in
    real space projection operators read in
  non local Contribution for L=           1  read in
    real space projection operators read in
  non local Contribution for L=           1  read in
    real space projection operators read in
    PAW grid and wavefunctions read in
 
   number of l-projection  operators is LMAX  =           4
   number of lm-projection operators is LMMAX =           8
 
  PAW_PBE Ga_d 06Jul2010                :
 energy of atom  1       EATOM=-2148.8298
 kinetic energy error for atom=    0.0054 (will be added to EATOM!!)
  PAW_PBE N 08Apr2002                   :
 energy of atom  2       EATOM= -264.5486
 kinetic energy error for atom=    0.0367 (will be added to EATOM!!)
 
 
 POSCAR: Ga N
  positions in direct lattice
  velocities in cartesian coordinates
  No initial velocities read in
 exchange correlation table for  LEXCH =        8
   RHO(1)=    0.500       N(1)  =     2000
   RHO(2)=  100.500       N(2)  =     4000

 VTST: version 4.2, (08/11/21)

 CHAIN: initializing optimizer
 
 OPT: Using VASP Dynamics algorithm
 CHAIN: Read ICHAIN            0
 
 POSCAR: Ga N
  positions in direct lattice
  velocities in cartesian coordinates
  No initial velocities read in
 


--------------------------------------------------------------------------------------------------------


 ion  position               nearest neighbor table
   1  0.333  0.667  0.999-   4 1.96   4 1.96   4 1.96   3 1.97
   2  0.667  0.333  0.499-   3 1.96   3 1.96   3 1.96   4 1.97
   3  0.333  0.667  0.376-   2 1.96   2 1.96   2 1.96   1 1.97
   4  0.667  0.333  0.876-   1 1.96   1 1.96   1 1.96   2 1.97
 
  LATTYP: Found a hexagonal cell.
 ALAT       =     3.2075065144
 C/A-ratio  =     1.6285635599
  
  Lattice vectors:
  
 A1 = (   3.2075065144,   0.0000000000,   0.0000000000)
 A2 = (  -1.6037532572,   2.7777821242,   0.0000000000)
 A3 = (   0.0000000000,   0.0000000000,   5.2236282274)


Analysis of symmetry for initial positions (statically):
=====================================================================
 Subroutine PRICEL returns:
 Original cell was already a primitive cell.
 

 Routine SETGRP: Setting up the symmetry group for a 
 hexagonal supercell.


 Subroutine GETGRP returns: Found 12 space group operations
 (whereof  6 operations were pure point group operations)
 out of a pool of 24 trial point group operations.


The static configuration has the point symmetry C_3v.
 The point group associated with its full space group is C_6v.


Analysis of symmetry for dynamics (positions and initial velocities):
=====================================================================
 Subroutine PRICEL returns:
 Original cell was already a primitive cell.
 

 Routine SETGRP: Setting up the symmetry group for a 
 hexagonal supercell.


 Subroutine GETGRP returns: Found 12 space group operations
 (whereof  6 operations were pure point group operations)
 out of a pool of 24 trial point group operations.


The dynamic configuration has the point symmetry C_3v.
 The point group associated with its full space group is C_6v.


 Subroutine INISYM returns: Found 12 space group operations
 (whereof  6 operations are pure point group operations),
 and found     1 'primitive' translations


----------------------------------------------------------------------------------------

                                     Primitive cell                                     

  volume of cell :      46.5412

  direct lattice vectors                    reciprocal lattice vectors
     3.207506514  0.000000000  0.000000000     0.311768658  0.179999718  0.000000000
    -1.603753257  2.777782124  0.000000000     0.000000000  0.359999437  0.000000000
     0.000000000  0.000000000  5.223628227     0.000000000  0.000000000  0.191437820

  length of vectors
     3.207506514  3.207506514  5.223628227     0.359999437  0.359999437  0.191437820

  position of ions in fractional coordinates (direct lattice)
     0.333333343  0.666666687  0.999139314
     0.666666627  0.333333313  0.499139314
     0.333333343  0.666666687  0.375860686
     0.666666627  0.333333313  0.875860686

  ion indices of the primitive-cell ions
   primitive index   ion index
                 1           1
                 2           2
                 3           3
                 4           4

----------------------------------------------------------------------------------------

 
 
 KPOINTS: K-Points                                

Automatic generation of k-mesh.
 Grid dimensions read from file:
 generate k-points for:   11   11   11

 Generating k-lattice:

  Cartesian coordinates                     Fractional coordinates (reciprocal lattice)
     0.028342605  0.016363611  0.000000000     0.090909091 -0.000000000  0.000000000
     0.000000000  0.032727222  0.000000000     0.000000000  0.090909091  0.000000000
     0.000000000  0.000000000  0.017403438     0.000000000  0.000000000  0.090909091

  Length of vectors
     0.032727222  0.032727222  0.017403438

  Shift w.r.t. Gamma in fractional coordinates (k-lattice)
     0.000000000  0.000000000  0.000000000

 
 Subroutine IBZKPT returns following result:
 ===========================================
 
 Found     96 irreducible k-points:
 
 Following reciprocal coordinates:
            Coordinates               Weight
  0.000000  0.000000  0.000000      1.000000
  0.090909  0.000000  0.000000      6.000000
  0.181818 -0.000000  0.000000      6.000000
  0.272727  0.000000  0.000000      6.000000
  0.363636 -0.000000  0.000000      6.000000
  0.454545 -0.000000  0.000000      6.000000
  0.090909  0.090909  0.000000      6.000000
  0.181818  0.090909  0.000000     12.000000
  0.272727  0.090909  0.000000     12.000000
  0.363636  0.090909  0.000000     12.000000
  0.454545  0.090909  0.000000      6.000000
  0.181818  0.181818  0.000000      6.000000
  0.272727  0.181818  0.000000     12.000000
  0.363636  0.181818  0.000000     12.000000
  0.272727  0.272727  0.000000      6.000000
  0.363636  0.272727  0.000000      6.000000
  0.000000  0.000000  0.090909      2.000000
  0.090909  0.000000  0.090909     12.000000
  0.181818 -0.000000  0.090909     12.000000
  0.272727  0.000000  0.090909     12.000000
  0.363636 -0.000000  0.090909     12.000000
  0.454545 -0.000000  0.090909     12.000000
  0.090909  0.090909  0.090909     12.000000
  0.181818  0.090909  0.090909     24.000000
  0.272727  0.090909  0.090909     24.000000
  0.363636  0.090909  0.090909     24.000000
  0.454545  0.090909  0.090909     12.000000
  0.181818  0.181818  0.090909     12.000000
  0.272727  0.181818  0.090909     24.000000
  0.363636  0.181818  0.090909     24.000000
  0.272727  0.272727  0.090909     12.000000
  0.363636  0.272727  0.090909     12.000000
  0.000000  0.000000  0.181818      2.000000
  0.090909  0.000000  0.181818     12.000000
  0.181818 -0.000000  0.181818     12.000000
  0.272727  0.000000  0.181818     12.000000
  0.363636 -0.000000  0.181818     12.000000
  0.454545 -0.000000  0.181818     12.000000
  0.090909  0.090909  0.181818     12.000000
  0.181818  0.090909  0.181818     24.000000
  0.272727  0.090909  0.181818     24.000000
  0.363636  0.090909  0.181818     24.000000
  0.454545  0.090909  0.181818     12.000000
  0.181818  0.181818  0.181818     12.000000
  0.272727  0.181818  0.181818     24.000000
  0.363636  0.181818  0.181818     24.000000
  0.272727  0.272727  0.181818     12.000000
  0.363636  0.272727  0.181818     12.000000
  0.000000  0.000000  0.272727      2.000000
  0.090909  0.000000  0.272727     12.000000
  0.181818 -0.000000  0.272727     12.000000
  0.272727  0.000000  0.272727     12.000000
  0.363636 -0.000000  0.272727     12.000000
  0.454545 -0.000000  0.272727     12.000000
  0.090909  0.090909  0.272727     12.000000
  0.181818  0.090909  0.272727     24.000000
  0.272727  0.090909  0.272727     24.000000
  0.363636  0.090909  0.272727     24.000000
  0.454545  0.090909  0.272727     12.000000
  0.181818  0.181818  0.272727     12.000000
  0.272727  0.181818  0.272727     24.000000
  0.363636  0.181818  0.272727     24.000000
  0.272727  0.272727  0.272727     12.000000
  0.363636  0.272727  0.272727     12.000000
  0.000000  0.000000  0.363636      2.000000
  0.090909  0.000000  0.363636     12.000000
  0.181818 -0.000000  0.363636     12.000000
  0.272727  0.000000  0.363636     12.000000
  0.363636 -0.000000  0.363636     12.000000
  0.454545 -0.000000  0.363636     12.000000
  0.090909  0.090909  0.363636     12.000000
  0.181818  0.090909  0.363636     24.000000
  0.272727  0.090909  0.363636     24.000000
  0.363636  0.090909  0.363636     24.000000
  0.454545  0.090909  0.363636     12.000000
  0.181818  0.181818  0.363636     12.000000
  0.272727  0.181818  0.363636     24.000000
  0.363636  0.181818  0.363636     24.000000
  0.272727  0.272727  0.363636     12.000000
  0.363636  0.272727  0.363636     12.000000
  0.000000  0.000000  0.454545      2.000000
  0.090909  0.000000  0.454545     12.000000
  0.181818 -0.000000  0.454545     12.000000
  0.272727  0.000000  0.454545     12.000000
  0.363636 -0.000000  0.454545     12.000000
  0.454545 -0.000000  0.454545     12.000000
  0.090909  0.090909  0.454545     12.000000
  0.181818  0.090909  0.454545     24.000000
  0.272727  0.090909  0.454545     24.000000
  0.363636  0.090909  0.454545     24.000000
  0.454545  0.090909  0.454545     12.000000
  0.181818  0.181818  0.454545     12.000000
  0.272727  0.181818  0.454545     24.000000
  0.363636  0.181818  0.454545     24.000000
  0.272727  0.272727  0.454545     12.000000
  0.363636  0.272727  0.454545     12.000000
 
 Following cartesian coordinates:
            Coordinates               Weight
  0.000000  0.000000  0.000000      1.000000
  0.028343  0.016364  0.000000      6.000000
  0.056685  0.032727  0.000000      6.000000
  0.085028  0.049091  0.000000      6.000000
  0.113370  0.065454  0.000000      6.000000
  0.141713  0.081818  0.000000      6.000000
  0.028343  0.049091  0.000000      6.000000
  0.056685  0.065454  0.000000     12.000000
  0.085028  0.081818  0.000000     12.000000
  0.113370  0.098182  0.000000     12.000000
  0.141713  0.114545  0.000000      6.000000
  0.056685  0.098182  0.000000      6.000000
  0.085028  0.114545  0.000000     12.000000
  0.113370  0.130909  0.000000     12.000000
  0.085028  0.147272  0.000000      6.000000
  0.113370  0.163636  0.000000      6.000000
  0.000000  0.000000  0.017403      2.000000
  0.028343  0.016364  0.017403     12.000000
  0.056685  0.032727  0.017403     12.000000
  0.085028  0.049091  0.017403     12.000000
  0.113370  0.065454  0.017403     12.000000
  0.141713  0.081818  0.017403     12.000000
  0.028343  0.049091  0.017403     12.000000
  0.056685  0.065454  0.017403     24.000000
  0.085028  0.081818  0.017403     24.000000
  0.113370  0.098182  0.017403     24.000000
  0.141713  0.114545  0.017403     12.000000
  0.056685  0.098182  0.017403     12.000000
  0.085028  0.114545  0.017403     24.000000
  0.113370  0.130909  0.017403     24.000000
  0.085028  0.147272  0.017403     12.000000
  0.113370  0.163636  0.017403     12.000000
  0.000000  0.000000  0.034807      2.000000
  0.028343  0.016364  0.034807     12.000000
  0.056685  0.032727  0.034807     12.000000
  0.085028  0.049091  0.034807     12.000000
  0.113370  0.065454  0.034807     12.000000
  0.141713  0.081818  0.034807     12.000000
  0.028343  0.049091  0.034807     12.000000
  0.056685  0.065454  0.034807     24.000000
  0.085028  0.081818  0.034807     24.000000
  0.113370  0.098182  0.034807     24.000000
  0.141713  0.114545  0.034807     12.000000
  0.056685  0.098182  0.034807     12.000000
  0.085028  0.114545  0.034807     24.000000
  0.113370  0.130909  0.034807     24.000000
  0.085028  0.147272  0.034807     12.000000
  0.113370  0.163636  0.034807     12.000000
  0.000000  0.000000  0.052210      2.000000
  0.028343  0.016364  0.052210     12.000000
  0.056685  0.032727  0.052210     12.000000
  0.085028  0.049091  0.052210     12.000000
  0.113370  0.065454  0.052210     12.000000
  0.141713  0.081818  0.052210     12.000000
  0.028343  0.049091  0.052210     12.000000
  0.056685  0.065454  0.052210     24.000000
  0.085028  0.081818  0.052210     24.000000
  0.113370  0.098182  0.052210     24.000000
  0.141713  0.114545  0.052210     12.000000
  0.056685  0.098182  0.052210     12.000000
  0.085028  0.114545  0.052210     24.000000
  0.113370  0.130909  0.052210     24.000000
  0.085028  0.147272  0.052210     12.000000
  0.113370  0.163636  0.052210     12.000000
  0.000000  0.000000  0.069614      2.000000
  0.028343  0.016364  0.069614     12.000000
  0.056685  0.032727  0.069614     12.000000
  0.085028  0.049091  0.069614     12.000000
  0.113370  0.065454  0.069614     12.000000
  0.141713  0.081818  0.069614     12.000000
  0.028343  0.049091  0.069614     12.000000
  0.056685  0.065454  0.069614     24.000000
  0.085028  0.081818  0.069614     24.000000
  0.113370  0.098182  0.069614     24.000000
  0.141713  0.114545  0.069614     12.000000
  0.056685  0.098182  0.069614     12.000000
  0.085028  0.114545  0.069614     24.000000
  0.113370  0.130909  0.069614     24.000000
  0.085028  0.147272  0.069614     12.000000
  0.113370  0.163636  0.069614     12.000000
  0.000000  0.000000  0.087017      2.000000
  0.028343  0.016364  0.087017     12.000000
  0.056685  0.032727  0.087017     12.000000
  0.085028  0.049091  0.087017     12.000000
  0.113370  0.065454  0.087017     12.000000
  0.141713  0.081818  0.087017     12.000000
  0.028343  0.049091  0.087017     12.000000
  0.056685  0.065454  0.087017     24.000000
  0.085028  0.081818  0.087017     24.000000
  0.113370  0.098182  0.087017     24.000000
  0.141713  0.114545  0.087017     12.000000
  0.056685  0.098182  0.087017     12.000000
  0.085028  0.114545  0.087017     24.000000
  0.113370  0.130909  0.087017     24.000000
  0.085028  0.147272  0.087017     12.000000
  0.113370  0.163636  0.087017     12.000000
 


--------------------------------------------------------------------------------------------------------




 Dimension of arrays:
   k-points           NKPTS =     96   k-points in BZ     NKDIM =     96   number of bands    NBANDS=     32
   number of dos      NEDOS =    301   number of ions     NIONS =      4
   non local maximal  LDIM  =      6   non local SUM 2l+1 LMDIM =     18
   total plane-waves  NPLWV =   7168
   max r-space proj   IRMAX =      1   max aug-charges    IRDMAX=   6036
   dimension x,y,z NGX =    16 NGY =   16 NGZ =   28
   dimension x,y,z NGXF=    32 NGYF=   32 NGZF=   56
   support grid    NGXF=    32 NGYF=   32 NGZF=   56
   ions per type =               2   2
   NGX,Y,Z   is equivalent  to a cutoff of   8.29,  8.29,  8.91 a.u.
   NGXF,Y,Z  is equivalent  to a cutoff of  16.59, 16.59, 17.82 a.u.

 SYSTEM =  GaN                                     
 POSCAR =  Ga N                                    

 Startparameter for this run:
   NWRITE =      2    write-flag & timer
   PREC   = normal    normal or accurate (medium, high low for compatibility)
   ISTART =      0    job   : 0-new  1-cont  2-samecut
   ICHARG =      2    charge: 1-file 2-atom 10-const
   ISPIN  =      1    spin polarized calculation?
   LNONCOLLINEAR =      F non collinear calculations
   LSORBIT =      F    spin-orbit coupling
   INIWAV =      1    electr: 0-lowe 1-rand  2-diag
   LASPH  =      F    aspherical Exc in radial PAW
 Electronic Relaxation 1
   ENCUT  =  430.0 eV  31.60 Ry    5.62 a.u.   5.42  5.42  8.83*2*pi/ulx,y,z
   ENINI  =  430.0     initial cutoff
   ENAUG  =  627.1 eV  augmentation charge cutoff
   NELM   =     60;   NELMIN=  2; NELMDL= -5     # of ELM steps 
   EDIFF  = 0.1E-08   stopping-criterion for ELM
   LREAL  =      F    real-space projection
   NLSPLINE    = F    spline interpolate recip. space projectors
   LCOMPAT=      F    compatible to vasp.4.4
   GGA_COMPAT  = T    GGA compatible to vasp.4.4-vasp.4.6
   LMAXPAW     = -100 max onsite density
   LMAXMIX     =    2 max onsite mixed and CHGCAR
   VOSKOWN=      0    Vosko Wilk Nusair interpolation
   ROPT   =    0.00000   0.00000
 Ionic relaxation
   EDIFFG = 0.1E-07   stopping-criterion for IOM
   NSW    =      0    number of steps for IOM
   NBLOCK =      1;   KBLOCK =      1    inner block; outer block 
   IBRION =     -1    ionic relax: 0-MD 1-quasi-New 2-CG
   NFREE  =      0    steps in history (QN), initial steepest desc. (CG)
   ISIF   =      2    stress and relaxation
   IWAVPR =     10    prediction:  0-non 1-charg 2-wave 3-comb
   ISYM   =      2    0-nonsym 1-usesym 2-fastsym
   LCORR  =      T    Harris-Foulkes like correction to forces

   POTIM  = 0.5000    time-step for ionic-motion
   TEIN   =    0.0    initial temperature
   TEBEG  =    0.0;   TEEND  =   0.0 temperature during run
   SMASS  =  -3.00    Nose mass-parameter (am)
   estimated Nose-frequenzy (Omega)   =  0.10E-29 period in steps = 0.13E+47 mass=  -0.235E-27a.u.
   SCALEE = 1.0000    scale energy and forces
   NPACO  =    256;   APACO  = 10.0  distance and # of slots for P.C.
   PSTRESS=    0.0 pullay stress

  Mass of Ions in am
   POMASS =  69.72 14.00
  Ionic Valenz
   ZVAL   =  13.00  5.00
  Atomic Wigner-Seitz radii
   RWIGS  =  -1.00 -1.00
  virtual crystal weights 
   VCA    =   1.00  1.00
   NELECT =      36.0000    total number of electrons
   NUPDOWN=      -1.0000    fix difference up-down

 DOS related values:
   EMIN   =  10.00;   EMAX   =-10.00  energy-range for DOS
   EFERMI =   0.00
   ISMEAR =     0;   SIGMA  =   0.05  broadening in eV -4-tet -1-fermi 0-gaus

 Electronic relaxation 2 (details)
   IALGO  =     38    algorithm
   LDIAG  =      T    sub-space diagonalisation (order eigenvalues)
   LSUBROT=      F    optimize rotation matrix (better conditioning)
   TURBO    =      0    0=normal 1=particle mesh
   IRESTART =      0    0=no restart 2=restart with 2 vectors
   NREBOOT  =      0    no. of reboots
   NMIN     =      0    reboot dimension
   EREF     =   0.00    reference energy to select bands
   IMIX   =      4    mixing-type and parameters
     AMIX     =   0.40;   BMIX     =  1.00
     AMIX_MAG =   1.60;   BMIX_MAG =  1.00
     AMIN     =   0.10
     WC   =   100.;   INIMIX=   1;  MIXPRE=   1;  MAXMIX= -45

 Intra band minimization:
   WEIMIN = 0.0000     energy-eigenvalue tresh-hold
   EBREAK =  0.78E-11  absolut break condition
   DEPER  =   0.30     relativ break condition  

   TIME   =   0.40     timestep for ELM

  volume/ion in A,a.u.               =      11.64        78.52
  Fermi-wavevector in a.u.,A,eV,Ry     =   1.502783  2.839848 30.726818  2.258357
  Thomas-Fermi vector in A             =   2.613979
 
 Write flags
   LWAVE        =      T    write WAVECAR
   LDOWNSAMPLE  =      F    k-point downsampling of WAVECAR
   LCHARG       =      T    write CHGCAR
   LVTOT        =      F    write LOCPOT, total local potential
   LVHAR        =      F    write LOCPOT, Hartree potential only
   LELF         =      F    write electronic localiz. function (ELF)
   LORBIT       =      0    0 simple, 1 ext, 2 COOP (PROOUT), +10 PAW based schemes


 Dipole corrections
   LMONO  =      F    monopole corrections only (constant potential shift)
   LDIPOL =      F    correct potential (dipole corrections)
   IDIPOL =      0    1-x, 2-y, 3-z, 4-all directions 
   EPSILON=  1.0000000 bulk dielectric constant

 Exchange correlation treatment:
   GGA     =    --    GGA type
   LEXCH   =     8    internal setting for exchange type
   LIBXC   =     F    Libxc                    
   VOSKOWN =     0    Vosko Wilk Nusair interpolation
   LHFCALC =     F    Hartree Fock is set to
   LHFONE  =     F    Hartree Fock one center treatment
   AEXX    =    0.0000 exact exchange contribution

 Linear response parameters
   LEPSILON=     F    determine dielectric tensor
   LRPA    =     F    only Hartree local field effects (RPA)
   LNABLA  =     F    use nabla operator in PAW spheres
   LVEL    =     F    velocity operator in full k-point grid
   CSHIFT  =0.1000    complex shift for real part using Kramers Kronig
   OMEGAMAX=  -1.0    maximum frequency
   DEG_THRESHOLD= 0.2000000E-02 threshold for treating states as degnerate
   RTIME   =   -0.100 relaxation time in fs
  (WPLASMAI=    0.000 imaginary part of plasma frequency in eV, 0.658/RTIME)
   DFIELD  = 0.0000000 0.0000000 0.0000000 field for delta impulse in time
 
  Optional k-point grid parameters
   LKPOINTS_OPT  =     F    use optional k-point grid
   KPOINTS_OPT_MODE=     1    mode for optional k-point grid
 
 Orbital magnetization related:
   ORBITALMAG=     F  switch on orbital magnetization
   LCHIMAG   =     F  perturbation theory with respect to B field
   DQ        =  0.001000  dq finite difference perturbation B field
   LLRAUG    =     F  two centre corrections for induced B field



--------------------------------------------------------------------------------------------------------


 Static calculation
 charge density and potential will be updated during run
 non-spin polarized calculation
 Variant of blocked Davidson
 Davidson routine will perform the subspace rotation
 perform sub-space diagonalisation
    after iterative eigenvector-optimisation
 modified Broyden-mixing scheme, WC =      100.0
 initial mixing is a Kerker type mixing with AMIX =  0.4000 and BMIX =      1.0000
 Hartree-type preconditioning will be used
 using additional bands           14
 reciprocal scheme for non local part
 use partial core corrections
 calculate Harris-corrections to forces 
   (improved forces if not selfconsistent)
 use gradient corrections 
 use of overlap-Matrix (Vanderbilt PP)
 Gauss-broadening in eV      SIGMA  =   0.05


--------------------------------------------------------------------------------------------------------


  energy-cutoff  :      430.00
  volume of cell :       46.54
      direct lattice vectors                 reciprocal lattice vectors
     3.207506514  0.000000000  0.000000000     0.311768658  0.179999718  0.000000000
    -1.603753257  2.777782124  0.000000000     0.000000000  0.359999437  0.000000000
     0.000000000  0.000000000  5.223628227     0.000000000  0.000000000  0.191437820

  length of vectors
     3.207506514  3.207506514  5.223628227     0.359999437  0.359999437  0.191437820


 
 k-points in units of 2pi/SCALE and weight: K-Points                                
   0.00000000  0.00000000  0.00000000       0.001
   0.02834261  0.01636361  0.00000000       0.005
   0.05668521  0.03272722  0.00000000       0.005
   0.08502782  0.04909083  0.00000000       0.005
   0.11337042  0.06545444  0.00000000       0.005
   0.14171303  0.08181805  0.00000000       0.005
   0.02834261  0.04909083  0.00000000       0.005
   0.05668521  0.06545444  0.00000000       0.009
   0.08502782  0.08181805  0.00000000       0.009
   0.11337042  0.09818166  0.00000000       0.009
   0.14171303  0.11454528  0.00000000       0.005
   0.05668521  0.09818166  0.00000000       0.005
   0.08502782  0.11454528  0.00000000       0.009
   0.11337042  0.13090889  0.00000000       0.009
   0.08502782  0.14727250  0.00000000       0.005
   0.11337042  0.16363611  0.00000000       0.005
   0.00000000  0.00000000  0.01740344       0.002
   0.02834261  0.01636361  0.01740344       0.009
   0.05668521  0.03272722  0.01740344       0.009
   0.08502782  0.04909083  0.01740344       0.009
   0.11337042  0.06545444  0.01740344       0.009
   0.14171303  0.08181805  0.01740344       0.009
   0.02834261  0.04909083  0.01740344       0.009
   0.05668521  0.06545444  0.01740344       0.018
   0.08502782  0.08181805  0.01740344       0.018
   0.11337042  0.09818166  0.01740344       0.018
   0.14171303  0.11454528  0.01740344       0.009
   0.05668521  0.09818166  0.01740344       0.009
   0.08502782  0.11454528  0.01740344       0.018
   0.11337042  0.13090889  0.01740344       0.018
   0.08502782  0.14727250  0.01740344       0.009
   0.11337042  0.16363611  0.01740344       0.009
   0.00000000  0.00000000  0.03480688       0.002
   0.02834261  0.01636361  0.03480688       0.009
   0.05668521  0.03272722  0.03480688       0.009
   0.08502782  0.04909083  0.03480688       0.009
   0.11337042  0.06545444  0.03480688       0.009
   0.14171303  0.08181805  0.03480688       0.009
   0.02834261  0.04909083  0.03480688       0.009
   0.05668521  0.06545444  0.03480688       0.018
   0.08502782  0.08181805  0.03480688       0.018
   0.11337042  0.09818166  0.03480688       0.018
   0.14171303  0.11454528  0.03480688       0.009
   0.05668521  0.09818166  0.03480688       0.009
   0.08502782  0.11454528  0.03480688       0.018
   0.11337042  0.13090889  0.03480688       0.018
   0.08502782  0.14727250  0.03480688       0.009
   0.11337042  0.16363611  0.03480688       0.009
   0.00000000  0.00000000  0.05221031       0.002
   0.02834261  0.01636361  0.05221031       0.009
   0.05668521  0.03272722  0.05221031       0.009
   0.08502782  0.04909083  0.05221031       0.009
   0.11337042  0.06545444  0.05221031       0.009
   0.14171303  0.08181805  0.05221031       0.009
   0.02834261  0.04909083  0.05221031       0.009
   0.05668521  0.06545444  0.05221031       0.018
   0.08502782  0.08181805  0.05221031       0.018
   0.11337042  0.09818166  0.05221031       0.018
   0.14171303  0.11454528  0.05221031       0.009
   0.05668521  0.09818166  0.05221031       0.009
   0.08502782  0.11454528  0.05221031       0.018
   0.11337042  0.13090889  0.05221031       0.018
   0.08502782  0.14727250  0.05221031       0.009
   0.11337042  0.16363611  0.05221031       0.009
   0.00000000  0.00000000  0.06961375       0.002
   0.02834261  0.01636361  0.06961375       0.009
   0.05668521  0.03272722  0.06961375       0.009
   0.08502782  0.04909083  0.06961375       0.009
   0.11337042  0.06545444  0.06961375       0.009
   0.14171303  0.08181805  0.06961375       0.009
   0.02834261  0.04909083  0.06961375       0.009
   0.05668521  0.06545444  0.06961375       0.018
   0.08502782  0.08181805  0.06961375       0.018
   0.11337042  0.09818166  0.06961375       0.018
   0.14171303  0.11454528  0.06961375       0.009
   0.05668521  0.09818166  0.06961375       0.009
   0.08502782  0.11454528  0.06961375       0.018
   0.11337042  0.13090889  0.06961375       0.018
   0.08502782  0.14727250  0.06961375       0.009
   0.11337042  0.16363611  0.06961375       0.009
   0.00000000  0.00000000  0.08701719       0.002
   0.02834261  0.01636361  0.08701719       0.009
   0.05668521  0.03272722  0.08701719       0.009
   0.08502782  0.04909083  0.08701719       0.009
   0.11337042  0.06545444  0.08701719       0.009
   0.14171303  0.08181805  0.08701719       0.009
   0.02834261  0.04909083  0.08701719       0.009
   0.05668521  0.06545444  0.08701719       0.018
   0.08502782  0.08181805  0.08701719       0.018
   0.11337042  0.09818166  0.08701719       0.018
   0.14171303  0.11454528  0.08701719       0.009
   0.05668521  0.09818166  0.08701719       0.009
   0.08502782  0.11454528  0.08701719       0.018
   0.11337042  0.13090889  0.08701719       0.018
   0.08502782  0.14727250  0.08701719       0.009
   0.11337042  0.16363611  0.08701719       0.009
 
 k-points in reciprocal lattice and weights: K-Points                                
   0.00000000  0.00000000  0.00000000       0.001
   0.09090909  0.00000000  0.00000000       0.005
   0.18181818 -0.00000000  0.00000000       0.005
   0.27272727  0.00000000  0.00000000       0.005
   0.36363636 -0.00000000  0.00000000       0.005
   0.45454545 -0.00000000  0.00000000       0.005
   0.09090909  0.09090909  0.00000000       0.005
   0.18181818  0.09090909  0.00000000       0.009
   0.27272727  0.09090909  0.00000000       0.009
   0.36363636  0.09090909  0.00000000       0.009
   0.45454545  0.09090909  0.00000000       0.005
   0.18181818  0.18181818  0.00000000       0.005
   0.27272727  0.18181818  0.00000000       0.009
   0.36363636  0.18181818  0.00000000       0.009
   0.27272727  0.27272727  0.00000000       0.005
   0.36363636  0.27272727  0.00000000       0.005
   0.00000000  0.00000000  0.09090909       0.002
   0.09090909  0.00000000  0.09090909       0.009
   0.18181818 -0.00000000  0.09090909       0.009
   0.27272727  0.00000000  0.09090909       0.009
   0.36363636 -0.00000000  0.09090909       0.009
   0.45454545 -0.00000000  0.09090909       0.009
   0.09090909  0.09090909  0.09090909       0.009
   0.18181818  0.09090909  0.09090909       0.018
   0.27272727  0.09090909  0.09090909       0.018
   0.36363636  0.09090909  0.09090909       0.018
   0.45454545  0.09090909  0.09090909       0.009
   0.18181818  0.18181818  0.09090909       0.009
   0.27272727  0.18181818  0.09090909       0.018
   0.36363636  0.18181818  0.09090909       0.018
   0.27272727  0.27272727  0.09090909       0.009
   0.36363636  0.27272727  0.09090909       0.009
   0.00000000  0.00000000  0.18181818       0.002
   0.09090909  0.00000000  0.18181818       0.009
   0.18181818 -0.00000000  0.18181818       0.009
   0.27272727  0.00000000  0.18181818       0.009
   0.36363636 -0.00000000  0.18181818       0.009
   0.45454545 -0.00000000  0.18181818       0.009
   0.09090909  0.09090909  0.18181818       0.009
   0.18181818  0.09090909  0.18181818       0.018
   0.27272727  0.09090909  0.18181818       0.018
   0.36363636  0.09090909  0.18181818       0.018
   0.45454545  0.09090909  0.18181818       0.009
   0.18181818  0.18181818  0.18181818       0.009
   0.27272727  0.18181818  0.18181818       0.018
   0.36363636  0.18181818  0.18181818       0.018
   0.27272727  0.27272727  0.18181818       0.009
   0.36363636  0.27272727  0.18181818       0.009
   0.00000000  0.00000000  0.27272727       0.002
   0.09090909  0.00000000  0.27272727       0.009
   0.18181818 -0.00000000  0.27272727       0.009
   0.27272727  0.00000000  0.27272727       0.009
   0.36363636 -0.00000000  0.27272727       0.009
   0.45454545 -0.00000000  0.27272727       0.009
   0.09090909  0.09090909  0.27272727       0.009
   0.18181818  0.09090909  0.27272727       0.018
   0.27272727  0.09090909  0.27272727       0.018
   0.36363636  0.09090909  0.27272727       0.018
   0.45454545  0.09090909  0.27272727       0.009
   0.18181818  0.18181818  0.27272727       0.009
   0.27272727  0.18181818  0.27272727       0.018
   0.36363636  0.18181818  0.27272727       0.018
   0.27272727  0.27272727  0.27272727       0.009
   0.36363636  0.27272727  0.27272727       0.009
   0.00000000  0.00000000  0.36363636       0.002
   0.09090909  0.00000000  0.36363636       0.009
   0.18181818 -0.00000000  0.36363636       0.009
   0.27272727  0.00000000  0.36363636       0.009
   0.36363636 -0.00000000  0.36363636       0.009
   0.45454545 -0.00000000  0.36363636       0.009
   0.09090909  0.09090909  0.36363636       0.009
   0.18181818  0.09090909  0.36363636       0.018
   0.27272727  0.09090909  0.36363636       0.018
   0.36363636  0.09090909  0.36363636       0.018
   0.45454545  0.09090909  0.36363636       0.009
   0.18181818  0.18181818  0.36363636       0.009
   0.27272727  0.18181818  0.36363636       0.018
   0.36363636  0.18181818  0.36363636       0.018
   0.27272727  0.27272727  0.36363636       0.009
   0.36363636  0.27272727  0.36363636       0.009
   0.00000000  0.00000000  0.45454545       0.002
   0.09090909  0.00000000  0.45454545       0.009
   0.18181818 -0.00000000  0.45454545       0.009
   0.27272727  0.00000000  0.45454545       0.009
   0.36363636 -0.00000000  0.45454545       0.009
   0.45454545 -0.00000000  0.45454545       0.009
   0.09090909  0.09090909  0.45454545       0.009
   0.18181818  0.09090909  0.45454545       0.018
   0.27272727  0.09090909  0.45454545       0.018
   0.36363636  0.09090909  0.45454545       0.018
   0.45454545  0.09090909  0.45454545       0.009
   0.18181818  0.18181818  0.45454545       0.009
   0.27272727  0.18181818  0.45454545       0.018
   0.36363636  0.18181818  0.45454545       0.018
   0.27272727  0.27272727  0.45454545       0.009
   0.36363636  0.27272727  0.45454545       0.009
 
 position of ions in fractional coordinates (direct lattice) 
   0.33333334  0.66666669  0.99913931
   0.66666663  0.33333331  0.49913931
   0.33333334  0.66666669  0.37586069
   0.66666663  0.33333331  0.87586069
 
 position of ions in cartesian coordinates  (Angst):
  -0.00000000  1.85185481  5.21913233
   1.60375316  0.92592732  2.60731821
  -0.00000000  1.85185481  1.96335649
   1.60375316  0.92592732  4.57517060
 


--------------------------------------------------------------------------------------------------------


 k-point   1 :   0.0000 0.0000 0.0000  plane waves:     941
 k-point   2 :   0.0909 0.0000 0.0000  plane waves:     951
 k-point   3 :   0.1818-0.0000 0.0000  plane waves:     955
 k-point   4 :   0.2727 0.0000 0.0000  plane waves:     957
 k-point   5 :   0.3636-0.0000 0.0000  plane waves:     942
 k-point   6 :   0.4545-0.0000 0.0000  plane waves:     928
 k-point   7 :   0.0909 0.0909 0.0000  plane waves:     943
 k-point   8 :   0.1818 0.0909 0.0000  plane waves:     955
 k-point   9 :   0.2727 0.0909 0.0000  plane waves:     945
 k-point  10 :   0.3636 0.0909 0.0000  plane waves:     942
 k-point  11 :   0.4545 0.0909 0.0000  plane waves:     936
 k-point  12 :   0.1818 0.1818 0.0000  plane waves:     949
 k-point  13 :   0.2727 0.1818 0.0000  plane waves:     940
 k-point  14 :   0.3636 0.1818 0.0000  plane waves:     935
 k-point  15 :   0.2727 0.2727 0.0000  plane waves:     935
 k-point  16 :   0.3636 0.2727 0.0000  plane waves:     932
 k-point  17 :   0.0000 0.0000 0.0909  plane waves:     965
 k-point  18 :   0.0909 0.0000 0.0909  plane waves:     955
 k-point  19 :   0.1818-0.0000 0.0909  plane waves:     951
 k-point  20 :   0.2727 0.0000 0.0909  plane waves:     953
 k-point  21 :   0.3636-0.0000 0.0909  plane waves:     942
 k-point  22 :   0.4545-0.0000 0.0909  plane waves:     927
 k-point  23 :   0.0909 0.0909 0.0909  plane waves:     950
 k-point  24 :   0.1818 0.0909 0.0909  plane waves:     949
 k-point  25 :   0.2727 0.0909 0.0909  plane waves:     942
 k-point  26 :   0.3636 0.0909 0.0909  plane waves:     937
 k-point  27 :   0.4545 0.0909 0.0909  plane waves:     929
 k-point  28 :   0.1818 0.1818 0.0909  plane waves:     944
 k-point  29 :   0.2727 0.1818 0.0909  plane waves:     937
 k-point  30 :   0.3636 0.1818 0.0909  plane waves:     937
 k-point  31 :   0.2727 0.2727 0.0909  plane waves:     935
 k-point  32 :   0.3636 0.2727 0.0909  plane waves:     936
 k-point  33 :   0.0000 0.0000 0.1818  plane waves:     966
 k-point  34 :   0.0909 0.0000 0.1818  plane waves:     960
 k-point  35 :   0.1818-0.0000 0.1818  plane waves:     953
 k-point  36 :   0.2727 0.0000 0.1818  plane waves:     947
 k-point  37 :   0.3636-0.0000 0.1818  plane waves:     935
 k-point  38 :   0.4545-0.0000 0.1818  plane waves:     927
 k-point  39 :   0.0909 0.0909 0.1818  plane waves:     943
 k-point  40 :   0.1818 0.0909 0.1818  plane waves:     946
 k-point  41 :   0.2727 0.0909 0.1818  plane waves:     945
 k-point  42 :   0.3636 0.0909 0.1818  plane waves:     932
 k-point  43 :   0.4545 0.0909 0.1818  plane waves:     933
 k-point  44 :   0.1818 0.1818 0.1818  plane waves:     944
 k-point  45 :   0.2727 0.1818 0.1818  plane waves:     939
 k-point  46 :   0.3636 0.1818 0.1818  plane waves:     938
 k-point  47 :   0.2727 0.2727 0.1818  plane waves:     937
 k-point  48 :   0.3636 0.2727 0.1818  plane waves:     938
 k-point  49 :   0.0000 0.0000 0.2727  plane waves:     966
 k-point  50 :   0.0909 0.0000 0.2727  plane waves:     956
 k-point  51 :   0.1818-0.0000 0.2727  plane waves:     949
 k-point  52 :   0.2727 0.0000 0.2727  plane waves:     943
 k-point  53 :   0.3636-0.0000 0.2727  plane waves:     938
 k-point  54 :   0.4545-0.0000 0.2727  plane waves:     938
 k-point  55 :   0.0909 0.0909 0.2727  plane waves:     948
 k-point  56 :   0.1818 0.0909 0.2727  plane waves:     943
 k-point  57 :   0.2727 0.0909 0.2727  plane waves:     940
 k-point  58 :   0.3636 0.0909 0.2727  plane waves:     934
 k-point  59 :   0.4545 0.0909 0.2727  plane waves:     935
 k-point  60 :   0.1818 0.1818 0.2727  plane waves:     942
 k-point  61 :   0.2727 0.1818 0.2727  plane waves:     941
 k-point  62 :   0.3636 0.1818 0.2727  plane waves:     942
 k-point  63 :   0.2727 0.2727 0.2727  plane waves:     949
 k-point  64 :   0.3636 0.2727 0.2727  plane waves:     945
 k-point  65 :   0.0000 0.0000 0.3636  plane waves:     954
 k-point  66 :   0.0909 0.0000 0.3636  plane waves:     959
 k-point  67 :   0.1818-0.0000 0.3636  plane waves:     940
 k-point  68 :   0.2727 0.0000 0.3636  plane waves:     944
 k-point  69 :   0.3636-0.0000 0.3636  plane waves:     938
 k-point  70 :   0.4545-0.0000 0.3636  plane waves:     941
 k-point  71 :   0.0909 0.0909 0.3636  plane waves:     949
 k-point  72 :   0.1818 0.0909 0.3636  plane waves:     945
 k-point  73 :   0.2727 0.0909 0.3636  plane waves:     943
 k-point  74 :   0.3636 0.0909 0.3636  plane waves:     940
 k-point  75 :   0.4545 0.0909 0.3636  plane waves:     941
 k-point  76 :   0.1818 0.1818 0.3636  plane waves:     940
 k-point  77 :   0.2727 0.1818 0.3636  plane waves:     946
 k-point  78 :   0.3636 0.1818 0.3636  plane waves:     938
 k-point  79 :   0.2727 0.2727 0.3636  plane waves:     939
 k-point  80 :   0.3636 0.2727 0.3636  plane waves:     942
 k-point  81 :   0.0000 0.0000 0.4545  plane waves:     966
 k-point  82 :   0.0909 0.0000 0.4545  plane waves:     962
 k-point  83 :   0.1818-0.0000 0.4545  plane waves:     943
 k-point  84 :   0.2727 0.0000 0.4545  plane waves:     941
 k-point  85 :   0.3636-0.0000 0.4545  plane waves:     930
 k-point  86 :   0.4545-0.0000 0.4545  plane waves:     939
 k-point  87 :   0.0909 0.0909 0.4545  plane waves:     956
 k-point  88 :   0.1818 0.0909 0.4545  plane waves:     944
 k-point  89 :   0.2727 0.0909 0.4545  plane waves:     945
 k-point  90 :   0.3636 0.0909 0.4545  plane waves:     940
 k-point  91 :   0.4545 0.0909 0.4545  plane waves:     932
 k-point  92 :   0.1818 0.1818 0.4545  plane waves:     946
 k-point  93 :   0.2727 0.1818 0.4545  plane waves:     942
 k-point  94 :   0.3636 0.1818 0.4545  plane waves:     946
 k-point  95 :   0.2727 0.2727 0.4545  plane waves:     935
 k-point  96 :   0.3636 0.2727 0.4545  plane waves:     942

 maximum and minimum number of plane-waves per node :       966      927

 maximum number of plane-waves:       966
 maximum index in each direction: 
   IXMAX=    5   IYMAX=    5   IZMAX=    8
   IXMIN=   -5   IYMIN=   -5   IZMIN=   -9


 serial   3D FFT for wavefunctions
 parallel 3D FFT for charge:
    minimum data exchange during FFTs selected (reduces bandwidth)


 total amount of memory used by VASP MPI-rank0    59668. kBytes
=======================================================================

   base      :      30000. kBytes
   nonl-proj :      27490. kBytes
   fftplans  :        101. kBytes
   grid      :        393. kBytes
   one-center:         62. kBytes
   wavefun   :       1622. kBytes
 
     INWAV:  cpu time      0.0000: real time      0.0001
 Broyden mixing: mesh for mixing (old mesh)
   NGX = 11   NGY = 11   NGZ = 17
  (NGX  = 32   NGY  = 32   NGZ  = 56)
  gives a total of   2057 points

 initial charge density was supplied:
 charge density of overlapping atoms calculated
 number of electron      36.0000000 magnetization 
 keeping initial charge density in first step


--------------------------------------------------------------------------------------------------------


 Maximum index for augmentation-charges           69 (set IRDMAX)


--------------------------------------------------------------------------------------------------------


 First call to EWALD:  gamma=   0.493
 Maximum number of real-space cells 3x 3x 2
 Maximum number of reciprocal cells 3x 3x 4

    FEWALD:  cpu time      0.0016: real time      0.0016


--------------------------------------- Iteration      1(   1)  ---------------------------------------


    POTLOK:  cpu time      0.0067: real time      0.0119
    SETDIJ:  cpu time      0.0029: real time      0.0029
     EDDAV:  cpu time      0.6287: real time      0.6342
       DOS:  cpu time      0.0015: real time      0.0015
    --------------------------------------------
      LOOP:  cpu time      0.6397: real time      0.6505

 eigenvalue-minimisations  :  6144
 total energy-change (2. order) : 0.4431830E+02  (-0.1949500E+04)
 number of electron      36.0000000 magnetization 
 augmentation part       36.0000000 magnetization 

 Free energy of the ion-electron system (eV)
  ---------------------------------------------------
  alpha Z        PSCENC =       194.03312172
  Ewald energy   TEWEN  =     -3153.96459923
  -Hartree energ DENC   =     -1166.19767918
  -exchange      EXHF   =         0.00000000
  -V(xc)+E(xc)   XCENC  =       128.60817749
  PAW double counting   =      3616.17691320    -4285.66495278
  entropy T*S    EENTRO =        -0.00050894
  eigenvalues    EBANDS =      -115.34481807
  atomic energy  EATOM  =      4826.67264151
  Solvation  Ediel_sol  =         0.00000000
  ---------------------------------------------------
  free energy    TOTEN  =        44.31829572 eV

  energy without entropy =       44.31880465  energy(sigma->0) =       44.31855019


--------------------------------------------------------------------------------------------------------




--------------------------------------- Iteration      1(   2)  ---------------------------------------


     EDDAV:  cpu time      0.8529: real time      0.8617
       DOS:  cpu time      0.0006: real time      0.0006
    --------------------------------------------
      LOOP:  cpu time      0.8535: real time      0.8624

 eigenvalue-minimisations  :  7424
 total energy-change (2. order) :-0.7151935E+02  (-0.7133543E+02)
 number of electron      36.0000000 magnetization 
 augmentation part       36.0000000 magnetization 

 Free energy of the ion-electron system (eV)
  ---------------------------------------------------
  alpha Z        PSCENC =       194.03312172
  Ewald energy   TEWEN  =     -3153.96459923
  -Hartree energ DENC   =     -1166.19767918
  -exchange      EXHF   =         0.00000000
  -V(xc)+E(xc)   XCENC  =       128.60817749
  PAW double counting   =      3616.17691320    -4285.66495278
  entropy T*S    EENTRO =        -0.00000000
  eigenvalues    EBANDS =      -186.86467292
  atomic energy  EATOM  =      4826.67264151
  Solvation  Ediel_sol  =         0.00000000
  ---------------------------------------------------
  free energy    TOTEN  =       -27.20105019 eV

  energy without entropy =      -27.20105019  energy(sigma->0) =      -27.20105019


--------------------------------------------------------------------------------------------------------




--------------------------------------- Iteration      1(   3)  ---------------------------------------


     EDDAV:  cpu time      0.6527: real time      0.6570
       DOS:  cpu time      0.0003: real time      0.0003
    --------------------------------------------
      LOOP:  cpu time      0.6530: real time      0.6573

 eigenvalue-minimisations  :  6944
 total energy-change (2. order) :-0.1071046E+01  (-0.1071046E+01)
 number of electron      36.0000000 magnetization 
 augmentation part       36.0000000 magnetization 

 Free energy of the ion-electron system (eV)
  ---------------------------------------------------
  alpha Z        PSCENC =       194.03312172
  Ewald energy   TEWEN  =     -3153.96459923
  -Hartree energ DENC   =     -1166.19767918
  -exchange      EXHF   =         0.00000000
  -V(xc)+E(xc)   XCENC  =       128.60817749
  PAW double counting   =      3616.17691320    -4285.66495278
  entropy T*S    EENTRO =        -0.00000000
  eigenvalues    EBANDS =      -187.93571862
  atomic energy  EATOM  =      4826.67264151
  Solvation  Ediel_sol  =         0.00000000
  ---------------------------------------------------
  free energy    TOTEN  =       -28.27209589 eV

  energy without entropy =      -28.27209589  energy(sigma->0) =      -28.27209589


--------------------------------------------------------------------------------------------------------




--------------------------------------- Iteration      1(   4)  ---------------------------------------


     EDDAV:  cpu time      1.1282: real time      1.1327
       DOS:  cpu time      0.0003: real time      0.0003
    --------------------------------------------
      LOOP:  cpu time      1.1285: real time      1.1330

 eigenvalue-minimisations  : 10912
 total energy-change (2. order) :-0.4845665E-02  (-0.4845665E-02)
 number of electron      36.0000000 magnetization 
 augmentation part       36.0000000 magnetization 

 Free energy of the ion-electron system (eV)
  ---------------------------------------------------
  alpha Z        PSCENC =       194.03312172
  Ewald energy   TEWEN  =     -3153.96459923
  -Hartree energ DENC   =     -1166.19767918
  -exchange      EXHF   =         0.00000000
  -V(xc)+E(xc)   XCENC  =       128.60817749
  PAW double counting   =      3616.17691320    -4285.66495278
  entropy T*S    EENTRO =        -0.00000000
  eigenvalues    EBANDS =      -187.94056428
  atomic energy  EATOM  =      4826.67264151
  Solvation  Ediel_sol  =         0.00000000
  ---------------------------------------------------
  free energy    TOTEN  =       -28.27694155 eV

  energy without entropy =      -28.27694155  energy(sigma->0) =      -28.27694155


--------------------------------------------------------------------------------------------------------




--------------------------------------- Iteration      1(   5)  ---------------------------------------


     EDDAV:  cpu time      0.5362: real time      0.5387
       DOS:  cpu time      0.0003: real time      0.0003
    CHARGE:  cpu time      0.0046: real time      0.0046
    MIXING:  cpu time      0.0003: real time      0.0003
    --------------------------------------------
      LOOP:  cpu time      0.5412: real time      0.5438

 eigenvalue-minimisations  :  7168
 total energy-change (2. order) :-0.3890982E-06  (-0.3890974E-06)
 number of electron      36.0000017 magnetization 
 augmentation part       17.7053834 magnetization 

 Broyden mixing:
  rms(total) = 0.10828E+01    rms(broyden)= 0.10825E+01
  rms(prec ) = 0.23200E+01
  weight for this iteration     100.00

 Free energy of the ion-electron system (eV)
  ---------------------------------------------------
  alpha Z        PSCENC =       194.03312172
  Ewald energy   TEWEN  =     -3153.96459923
  -Hartree energ DENC   =     -1166.19767918
  -exchange      EXHF   =         0.00000000
  -V(xc)+E(xc)   XCENC  =       128.60817749
  PAW double counting   =      3616.17691320    -4285.66495278
  entropy T*S    EENTRO =        -0.00000000
  eigenvalues    EBANDS =      -187.94056467
  atomic energy  EATOM  =      4826.67264151
  Solvation  Ediel_sol  =         0.00000000
  ---------------------------------------------------
  free energy    TOTEN  =       -28.27694194 eV

  energy without entropy =      -28.27694194  energy(sigma->0) =      -28.27694194


--------------------------------------------------------------------------------------------------------




--------------------------------------- Iteration      1(   6)  ---------------------------------------


    POTLOK:  cpu time      0.0021: real time      0.0023
    SETDIJ:  cpu time      0.0013: real time      0.0013
     EDDAV:  cpu time      0.6731: real time      0.6757
       DOS:  cpu time      0.0003: real time      0.0003
    CHARGE:  cpu time      0.0046: real time      0.0046
    MIXING:  cpu time      0.0003: real time      0.0003
    --------------------------------------------
      LOOP:  cpu time      0.6817: real time      0.6844

 eigenvalue-minimisations  :  8672
 total energy-change (2. order) : 0.3899937E+01  (-0.2720429E+01)
 number of electron      36.0000028 magnetization 
 augmentation part       17.4188068 magnetization 

 Broyden mixing:
  rms(total) = 0.40522E+00    rms(broyden)= 0.40482E+00
  rms(prec ) = 0.53106E+00
  weight for this iteration     100.00

 eigenvalues of (default mixing * dielectric matrix)
  average eigenvalue GAMMA=   0.8566
  0.8566

 Free energy of the ion-electron system (eV)
  ---------------------------------------------------
  alpha Z        PSCENC =       194.03312172
  Ewald energy   TEWEN  =     -3153.96459923
  -Hartree energ DENC   =     -1174.09959084
  -exchange      EXHF   =         0.00000000
  -V(xc)+E(xc)   XCENC  =       130.02871095
  PAW double counting   =      3846.60042034    -4513.81781133
  entropy T*S    EENTRO =        -0.00000000
  eigenvalues    EBANDS =      -179.82989838
  atomic energy  EATOM  =      4826.67264151
  Solvation  Ediel_sol  =         0.00000000
  ---------------------------------------------------
  free energy    TOTEN  =       -24.37700527 eV

  energy without entropy =      -24.37700527  energy(sigma->0) =      -24.37700527


--------------------------------------------------------------------------------------------------------




--------------------------------------- Iteration      1(   7)  ---------------------------------------


    POTLOK:  cpu time      0.0019: real time      0.0021
    SETDIJ:  cpu time      0.0013: real time      0.0013
     EDDAV:  cpu time      0.3996: real time      0.4012
       DOS:  cpu time      0.0003: real time      0.0003
    CHARGE:  cpu time      0.0045: real time      0.0046
    MIXING:  cpu time      0.0002: real time      0.0002
    --------------------------------------------
      LOOP:  cpu time      0.4078: real time      0.4096

 eigenvalue-minimisations  :  6272
 total energy-change (2. order) : 0.3513181E-01  (-0.2132558E-01)
 number of electron      36.0000028 magnetization 
 augmentation part       17.4061115 magnetization 

 Broyden mixing:
  rms(total) = 0.24315E+00    rms(broyden)= 0.24314E+00
  rms(prec ) = 0.32772E+00
  weight for this iteration     100.00

 eigenvalues of (default mixing * dielectric matrix)
  average eigenvalue GAMMA=   1.7593
  0.9641  2.5546

 Free energy of the ion-electron system (eV)
  ---------------------------------------------------
  alpha Z        PSCENC =       194.03312172
  Ewald energy   TEWEN  =     -3153.96459923
  -Hartree energ DENC   =     -1173.21350716
  -exchange      EXHF   =         0.00000000
  -V(xc)+E(xc)   XCENC  =       129.93166597
  PAW double counting   =      4080.63228258    -4752.83161773
  entropy T*S    EENTRO =        -0.00000000
  eigenvalues    EBANDS =      -175.60186111
  atomic energy  EATOM  =      4826.67264151
  Solvation  Ediel_sol  =         0.00000000
  ---------------------------------------------------
  free energy    TOTEN  =       -24.34187346 eV

  energy without entropy =      -24.34187346  energy(sigma->0) =      -24.34187346


--------------------------------------------------------------------------------------------------------




--------------------------------------- Iteration      1(   8)  ---------------------------------------


    POTLOK:  cpu time      0.0017: real time      0.0018
    SETDIJ:  cpu time      0.0012: real time      0.0012
     EDDAV:  cpu time      0.5327: real time      0.5347
       DOS:  cpu time      0.0003: real time      0.0003
    CHARGE:  cpu time      0.0045: real time      0.0045
    MIXING:  cpu time      0.0002: real time      0.0002
    --------------------------------------------
      LOOP:  cpu time      0.5406: real time      0.5428

 eigenvalue-minimisations  :  7328
 total energy-change (2. order) : 0.1618087E-01  (-0.6464551E-02)
 number of electron      36.0000028 magnetization 
 augmentation part       17.3903830 magnetization 

 Broyden mixing:
  rms(total) = 0.53921E-01    rms(broyden)= 0.53920E-01
  rms(prec ) = 0.59000E-01
  weight for this iteration     100.00

 eigenvalues of (default mixing * dielectric matrix)
  average eigenvalue GAMMA=   1.3702
  2.2968  0.9567  0.8570

 Free energy of the ion-electron system (eV)
  ---------------------------------------------------
  alpha Z        PSCENC =       194.03312172
  Ewald energy   TEWEN  =     -3153.96459923
  -Hartree energ DENC   =     -1170.94805248
  -exchange      EXHF   =         0.00000000
  -V(xc)+E(xc)   XCENC  =       129.83386585
  PAW double counting   =      4508.88202128    -5186.79429646
  entropy T*S    EENTRO =        -0.00000000
  eigenvalues    EBANDS =      -172.04039477
  atomic energy  EATOM  =      4826.67264151
  Solvation  Ediel_sol  =         0.00000000
  ---------------------------------------------------
  free energy    TOTEN  =       -24.32569258 eV

  energy without entropy =      -24.32569258  energy(sigma->0) =      -24.32569258


--------------------------------------------------------------------------------------------------------




--------------------------------------- Iteration      1(   9)  ---------------------------------------


    POTLOK:  cpu time      0.0016: real time      0.0017
    SETDIJ:  cpu time      0.0012: real time      0.0012
     EDDAV:  cpu time      0.7311: real time      0.7343
       DOS:  cpu time      0.0003: real time      0.0003
    CHARGE:  cpu time      0.0045: real time      0.0045
    MIXING:  cpu time      0.0003: real time      0.0003
    --------------------------------------------
      LOOP:  cpu time      0.7389: real time      0.7423

 eigenvalue-minimisations  :  8832
 total energy-change (2. order) : 0.7894176E-03  (-0.4145231E-03)
 number of electron      36.0000028 magnetization 
 augmentation part       17.3929141 magnetization 

 Broyden mixing:
  rms(total) = 0.22152E-01    rms(broyden)= 0.22150E-01
  rms(prec ) = 0.26269E-01
  weight for this iteration     100.00

 eigenvalues of (default mixing * dielectric matrix)
  average eigenvalue GAMMA=   1.7248
  2.6964  2.1152  1.0221  1.0654

 Free energy of the ion-electron system (eV)
  ---------------------------------------------------
  alpha Z        PSCENC =       194.03312172
  Ewald energy   TEWEN  =     -3153.96459923
  -Hartree energ DENC   =     -1170.93118233
  -exchange      EXHF   =         0.00000000
  -V(xc)+E(xc)   XCENC  =       129.83547047
  PAW double counting   =      4463.77475496    -5140.73115502
  entropy T*S    EENTRO =        -0.00000000
  eigenvalues    EBANDS =      -173.01395523
  atomic energy  EATOM  =      4826.67264151
  Solvation  Ediel_sol  =         0.00000000
  ---------------------------------------------------
  free energy    TOTEN  =       -24.32490316 eV

  energy without entropy =      -24.32490316  energy(sigma->0) =      -24.32490316


--------------------------------------------------------------------------------------------------------




--------------------------------------- Iteration      1(  10)  ---------------------------------------


    POTLOK:  cpu time      0.0015: real time      0.0017
    SETDIJ:  cpu time      0.0012: real time      0.0012
     EDDAV:  cpu time      0.5324: real time      0.5344
       DOS:  cpu time      0.0003: real time      0.0002
    CHARGE:  cpu time      0.0043: real time      0.0044
    MIXING:  cpu time      0.0002: real time      0.0002
    --------------------------------------------
      LOOP:  cpu time      0.5400: real time      0.5422

 eigenvalue-minimisations  :  7392
 total energy-change (2. order) :-0.6136160E-03  (-0.8578387E-04)
 number of electron      36.0000028 magnetization 
 augmentation part       17.3944832 magnetization 

 Broyden mixing:
  rms(total) = 0.55308E-02    rms(broyden)= 0.55248E-02
  rms(prec ) = 0.77135E-02
  weight for this iteration     100.00

 eigenvalues of (default mixing * dielectric matrix)
  average eigenvalue GAMMA=   1.6338
  2.6671  2.2394  0.9882  0.9882  1.2860

 Free energy of the ion-electron system (eV)
  ---------------------------------------------------
  alpha Z        PSCENC =       194.03312172
  Ewald energy   TEWEN  =     -3153.96459923
  -Hartree energ DENC   =     -1170.86045334
  -exchange      EXHF   =         0.00000000
  -V(xc)+E(xc)   XCENC  =       129.82362973
  PAW double counting   =      4469.61753235    -5146.63756425
  entropy T*S    EENTRO =        -0.00000000
  eigenvalues    EBANDS =      -173.00982527
  atomic energy  EATOM  =      4826.67264151
  Solvation  Ediel_sol  =         0.00000000
  ---------------------------------------------------
  free energy    TOTEN  =       -24.32551678 eV

  energy without entropy =      -24.32551678  energy(sigma->0) =      -24.32551678


--------------------------------------------------------------------------------------------------------




--------------------------------------- Iteration      1(  11)  ---------------------------------------


    POTLOK:  cpu time      0.0016: real time      0.0017
    SETDIJ:  cpu time      0.0014: real time      0.0014
     EDDAV:  cpu time      0.7614: real time      0.7645
       DOS:  cpu time      0.0003: real time      0.0003
    CHARGE:  cpu time      0.0045: real time      0.0045
    MIXING:  cpu time      0.0002: real time      0.0002
    --------------------------------------------
      LOOP:  cpu time      0.7694: real time      0.7726

 eigenvalue-minimisations  :  8928
 total energy-change (2. order) : 0.9254323E-05  (-0.1740238E-04)
 number of electron      36.0000028 magnetization 
 augmentation part       17.3936197 magnetization 

 Broyden mixing:
  rms(total) = 0.76916E-03    rms(broyden)= 0.72641E-03
  rms(prec ) = 0.12582E-02
  weight for this iteration     100.00

 eigenvalues of (default mixing * dielectric matrix)
  average eigenvalue GAMMA=   1.7422
  2.8680  2.6267  1.7293  0.9741  0.9741  1.2813

 Free energy of the ion-electron system (eV)
  ---------------------------------------------------
  alpha Z        PSCENC =       194.03312172
  Ewald energy   TEWEN  =     -3153.96459923
  -Hartree energ DENC   =     -1170.99763508
  -exchange      EXHF   =         0.00000000
  -V(xc)+E(xc)   XCENC  =       129.83131824
  PAW double counting   =      4464.94510048    -5141.93744879
  entropy T*S    EENTRO =        -0.00000000
  eigenvalues    EBANDS =      -172.90800637
  atomic energy  EATOM  =      4826.67264151
  Solvation  Ediel_sol  =         0.00000000
  ---------------------------------------------------
  free energy    TOTEN  =       -24.32550753 eV

  energy without entropy =      -24.32550753  energy(sigma->0) =      -24.32550753


--------------------------------------------------------------------------------------------------------




--------------------------------------- Iteration      1(  12)  ---------------------------------------


    POTLOK:  cpu time      0.0016: real time      0.0017
    SETDIJ:  cpu time      0.0012: real time      0.0012
     EDDAV:  cpu time      0.6222: real time      0.6251
       DOS:  cpu time      0.0003: real time      0.0003
    CHARGE:  cpu time      0.0043: real time      0.0043
    MIXING:  cpu time      0.0003: real time      0.0003
    --------------------------------------------
      LOOP:  cpu time      0.6298: real time      0.6329

 eigenvalue-minimisations  :  7968
 total energy-change (2. order) :-0.5133174E-05  (-0.1036208E-05)
 number of electron      36.0000028 magnetization 
 augmentation part       17.3936876 magnetization 

 Broyden mixing:
  rms(total) = 0.11813E-02    rms(broyden)= 0.11545E-02
  rms(prec ) = 0.12167E-02
  weight for this iteration     100.00

 eigenvalues of (default mixing * dielectric matrix)
  average eigenvalue GAMMA=   1.7685
  3.0711  2.6262  2.3932  1.3293  0.9790  0.9790  1.0012

 Free energy of the ion-electron system (eV)
  ---------------------------------------------------
  alpha Z        PSCENC =       194.03312172
  Ewald energy   TEWEN  =     -3153.96459923
  -Hartree energ DENC   =     -1171.04975415
  -exchange      EXHF   =         0.00000000
  -V(xc)+E(xc)   XCENC  =       129.83268617
  PAW double counting   =      4463.06077198    -5140.03075787
  entropy T*S    EENTRO =        -0.00000000
  eigenvalues    EBANDS =      -172.87962278
  atomic energy  EATOM  =      4826.67264151
  Solvation  Ediel_sol  =         0.00000000
  ---------------------------------------------------
  free energy    TOTEN  =       -24.32551266 eV

  energy without entropy =      -24.32551266  energy(sigma->0) =      -24.32551266


--------------------------------------------------------------------------------------------------------




--------------------------------------- Iteration      1(  13)  ---------------------------------------


    POTLOK:  cpu time      0.0015: real time      0.0016
    SETDIJ:  cpu time      0.0012: real time      0.0012
     EDDAV:  cpu time      0.8434: real time      0.8466
       DOS:  cpu time      0.0003: real time      0.0003
    CHARGE:  cpu time      0.0043: real time      0.0043
    MIXING:  cpu time      0.0003: real time      0.0003
    --------------------------------------------
      LOOP:  cpu time      0.8510: real time      0.8543

 eigenvalue-minimisations  :  9664
 total energy-change (2. order) : 0.4096973E-06  (-0.5580925E-07)
 number of electron      36.0000028 magnetization 
 augmentation part       17.3937215 magnetization 

 Broyden mixing:
  rms(total) = 0.25222E-03    rms(broyden)= 0.33962E-04
  rms(prec ) = 0.41983E-04
  weight for this iteration     100.00
  WARNING: grid for Broyden might be to small

 eigenvalues of (default mixing * dielectric matrix)
  average eigenvalue GAMMA=   1.7541
  3.1353  2.6027  2.4023  1.5692  1.3711  0.9787  0.9787  0.9946

 Free energy of the ion-electron system (eV)
  ---------------------------------------------------
  alpha Z        PSCENC =       194.03312172
  Ewald energy   TEWEN  =     -3153.96459923
  -Hartree energ DENC   =     -1171.04899988
  -exchange      EXHF   =         0.00000000
  -V(xc)+E(xc)   XCENC  =       129.83264340
  PAW double counting   =      4463.95705304    -5140.92593698
  entropy T*S    EENTRO =        -0.00000000
  eigenvalues    EBANDS =      -172.88143583
  atomic energy  EATOM  =      4826.67264151
  Solvation  Ediel_sol  =         0.00000000
  ---------------------------------------------------
  free energy    TOTEN  =       -24.32551225 eV

  energy without entropy =      -24.32551225  energy(sigma->0) =      -24.32551225


--------------------------------------------------------------------------------------------------------




--------------------------------------- Iteration      1(  14)  ---------------------------------------


    POTLOK:  cpu time      0.0015: real time      0.0017
    SETDIJ:  cpu time      0.0012: real time      0.0012
     EDDAV:  cpu time      0.5382: real time      0.5402
       DOS:  cpu time      0.0003: real time      0.0003
    CHARGE:  cpu time      0.0044: real time      0.0044
    MIXING:  cpu time      0.0003: real time      0.0003
    --------------------------------------------
      LOOP:  cpu time      0.5458: real time      0.5480

 eigenvalue-minimisations  :  7328
 total energy-change (2. order) :-0.2536399E-07  (-0.9132092E-09)
 number of electron      36.0000028 magnetization 
 augmentation part       17.3937141 magnetization 

 Broyden mixing:
  rms(total) = 0.25022E-03    rms(broyden)= 0.12380E-04
  rms(prec ) = 0.19348E-04
  weight for this iteration     100.00
  WARNING: grid for Broyden might be to small

 eigenvalues of (default mixing * dielectric matrix)
  average eigenvalue GAMMA=   1.7888
  3.1563  2.6813  2.6128  2.3549  1.3117  0.9824  0.9824  1.0085  1.0085

 Free energy of the ion-electron system (eV)
  ---------------------------------------------------
  alpha Z        PSCENC =       194.03312172
  Ewald energy   TEWEN  =     -3153.96459923
  -Hartree energ DENC   =     -1171.05004386
  -exchange      EXHF   =         0.00000000
  -V(xc)+E(xc)   XCENC  =       129.83268926
  PAW double counting   =      4463.94942634    -5140.91914162
  entropy T*S    EENTRO =        -0.00000000
  eigenvalues    EBANDS =      -172.87960639
  atomic energy  EATOM  =      4826.67264151
  Solvation  Ediel_sol  =         0.00000000
  ---------------------------------------------------
  free energy    TOTEN  =       -24.32551227 eV

  energy without entropy =      -24.32551227  energy(sigma->0) =      -24.32551227


--------------------------------------------------------------------------------------------------------




--------------------------------------- Iteration      1(  15)  ---------------------------------------


    POTLOK:  cpu time      0.0015: real time      0.0017
    SETDIJ:  cpu time      0.0013: real time      0.0013
     EDDAV:  cpu time      0.8104: real time      0.8139
       DOS:  cpu time      0.0003: real time      0.0003
    CHARGE:  cpu time      0.0046: real time      0.0046
    MIXING:  cpu time      0.0003: real time      0.0003
    --------------------------------------------
      LOOP:  cpu time      0.8184: real time      0.8220

 eigenvalue-minimisations  :  9376
 total energy-change (2. order) :-0.1021908E-07  (-0.1905375E-09)
 number of electron      36.0000028 magnetization 
 augmentation part       17.3937161 magnetization 

 Broyden mixing:
  rms(total) = 0.24999E-03    rms(broyden)= 0.59707E-05
  rms(prec ) = 0.66361E-05
  weight for this iteration     100.00
  WARNING: grid for Broyden might be to small

 eigenvalues of (default mixing * dielectric matrix)
  average eigenvalue GAMMA=   1.7911
  3.1217  2.8297  2.5926  2.4399  1.6792  1.3253  0.9780  0.9780  0.9835  0.9835

 Free energy of the ion-electron system (eV)
  ---------------------------------------------------
  alpha Z        PSCENC =       194.03312172
  Ewald energy   TEWEN  =     -3153.96459923
  -Hartree energ DENC   =     -1171.04937625
  -exchange      EXHF   =         0.00000000
  -V(xc)+E(xc)   XCENC  =       129.83266123
  PAW double counting   =      4463.97069864    -5140.94054783
  entropy T*S    EENTRO =        -0.00000000
  eigenvalues    EBANDS =      -172.88011208
  atomic energy  EATOM  =      4826.67264151
  Solvation  Ediel_sol  =         0.00000000
  ---------------------------------------------------
  free energy    TOTEN  =       -24.32551228 eV

  energy without entropy =      -24.32551228  energy(sigma->0) =      -24.32551228


--------------------------------------------------------------------------------------------------------




--------------------------------------- Iteration      1(  16)  ---------------------------------------


    POTLOK:  cpu time      0.0015: real time      0.0016
    SETDIJ:  cpu time      0.0012: real time      0.0013
     EDDAV:  cpu time      0.3582: real time      0.3596
       DOS:  cpu time      0.0003: real time      0.0003
    CHARGE:  cpu time      0.0043: real time      0.0043
    MIXING:  cpu time      0.0003: real time      0.0003
    --------------------------------------------
      LOOP:  cpu time      0.3657: real time      0.3673

 eigenvalue-minimisations  :  4928
 total energy-change (2. order) :-0.2136403E-08  (-0.2144877E-11)
 number of electron      36.0000028 magnetization 
 augmentation part       17.3937159 magnetization 

 Broyden mixing:
  rms(total) = 0.24992E-03    rms(broyden)= 0.14118E-05
  rms(prec ) = 0.18318E-05
  weight for this iteration     100.00
  WARNING: grid for Broyden might be to small

 eigenvalues of (default mixing * dielectric matrix)
  average eigenvalue GAMMA=   1.7663
  3.1636  2.8069  2.5992  2.2996  2.2996  1.3202  0.9792  0.9792  0.9812  0.9812
  1.0193

 Free energy of the ion-electron system (eV)
[...]
     19      10.2930      0.00000
     20      10.7133      0.00000
     21      12.4718      0.00000
     22      12.7142      0.00000
     23      14.7488      0.00000
     24      14.9992      0.00000
     25      16.4280      0.00000
     26      16.6564      0.00000
     27      20.2399      0.00000
     28      20.7117      0.00000
     29      22.4877      0.00000
     30      23.0804      0.00000
     31      26.0516      0.00000
     32      26.1692      0.00000

 k-point    89 :       0.2727    0.0909    0.4545
  band No.  band energies     occupation 
      1      -9.8252      2.00000
      2      -9.7810      2.00000
      3      -8.2282      2.00000
      4      -8.2155      2.00000
      5      -8.1720      2.00000
      6      -8.1541      2.00000
      7      -8.0737      2.00000
      8      -8.0660      2.00000
      9      -7.9877      2.00000
     10      -7.9819      2.00000
     11      -7.2339      2.00000
     12      -7.0393      2.00000
     13      -0.2577      2.00000
     14      -0.0050      2.00000
     15       2.7636      2.00000
     16       3.1193      2.00000
     17       3.3052      2.00000
     18       3.5691      2.00000
     19      10.0996      0.00000
     20      10.4733      0.00000
     21      12.6511      0.00000
     22      12.9352      0.00000
     23      14.6627      0.00000
     24      14.8000      0.00000
     25      16.7740      0.00000
     26      17.0872      0.00000
     27      19.7814      0.00000
     28      20.3485      0.00000
     29      23.2555      0.00000
     30      23.7979      0.00000
     31      26.1305      0.00000
     32      26.4071      0.00000

 k-point    90 :       0.3636    0.0909    0.4545
  band No.  band energies     occupation 
      1      -9.7526      2.00000
      2      -9.7261      2.00000
      3      -8.2369      2.00000
      4      -8.2232      2.00000
      5      -8.1544      2.00000
      6      -8.1295      2.00000
      7      -8.0492      2.00000
      8      -8.0350      2.00000
      9      -7.9755      2.00000
     10      -7.9717      2.00000
     11      -6.8139      2.00000
     12      -6.6721      2.00000
     13      -1.0521      2.00000
     14      -0.8631      2.00000
     15       2.6211      2.00000
     16       2.9218      2.00000
     17       3.2347      2.00000
     18       3.5835      2.00000
     19       9.7817      0.00000
     20      10.1276      0.00000
     21      12.7620      0.00000
     22      13.0337      0.00000
     23      14.6023      0.00000
     24      14.7024      0.00000
     25      17.0414      0.00000
     26      17.3990      0.00000
     27      19.8307      0.00000
     28      20.4331      0.00000
     29      24.3328      0.00000
     30      24.8066      0.00000
     31      26.2190      0.00000
     32      26.3371      0.00000

 k-point    91 :       0.4545    0.0909    0.4545
  band No.  band energies     occupation 
      1      -9.7301      2.00000
      2      -9.7094      2.00000
      3      -8.2413      2.00000
      4      -8.2272      2.00000
      5      -8.1502      2.00000
      6      -8.1227      2.00000
      7      -8.0364      2.00000
      8      -8.0188      2.00000
      9      -7.9713      2.00000
     10      -7.9686      2.00000
     11      -6.5946      2.00000
     12      -6.5184      2.00000
     13      -1.3855      2.00000
     14      -1.2279      2.00000
     15       2.5324      2.00000
     16       2.8291      2.00000
     17       3.3105      2.00000
     18       3.6002      2.00000
     19       9.6496      0.00000
     20       9.9882      0.00000
     21      12.7769      0.00000
     22      13.0171      0.00000
     23      14.5089      0.00000
     24      14.7264      0.00000
     25      17.1524      0.00000
     26      17.5216      0.00000
     27      19.9655      0.00000
     28      20.6042      0.00000
     29      24.9050      0.00000
     30      25.4661      0.00000
     31      26.0486      0.00000
     32      26.1377      0.00000

 k-point    92 :       0.1818    0.1818    0.4545
  band No.  band energies     occupation 
      1      -9.8376      2.00000
      2      -9.7904      2.00000
      3      -8.2122      2.00000
      4      -8.2027      2.00000
      5      -8.1832      2.00000
      6      -8.1722      2.00000
      7      -8.0866      2.00000
      8      -8.0824      2.00000
      9      -7.9862      2.00000
     10      -7.9858      2.00000
     11      -7.2853      2.00000
     12      -7.0872      2.00000
     13      -0.0251      2.00000
     14       0.2388      2.00000
     15       2.7983      2.00000
     16       2.8644      2.00000
     17       3.1719      2.00000
     18       3.5281      2.00000
     19      10.5469      0.00000
     20      10.8923      0.00000
     21      12.6833      0.00000
     22      12.7949      0.00000
     23      14.4166      0.00000
     24      14.5525      0.00000
     25      16.6829      0.00000
     26      17.0145      0.00000
     27      20.0984      0.00000
     28      20.4131      0.00000
     29      22.8830      0.00000
     30      22.9991      0.00000
     31      26.8887      0.00000
     32      26.8976      0.00000

 k-point    93 :       0.2727    0.1818    0.4545
  band No.  band energies     occupation 
      1      -9.7561      2.00000
      2      -9.7291      2.00000
      3      -8.2102      2.00000
      4      -8.2021      2.00000
      5      -8.1656      2.00000
      6      -8.1456      2.00000
      7      -8.0730      2.00000
      8      -8.0663      2.00000
      9      -7.9813      2.00000
     10      -7.9769      2.00000
     11      -6.8748      2.00000
     12      -6.7119      2.00000
     13      -0.6745      2.00000
     14      -0.4938      2.00000
     15       2.1276      2.00000
     16       2.3962      2.00000
     17       3.2094      2.00000
     18       3.6194      2.00000
     19      10.5293      0.00000
     20      10.8060      0.00000
     21      12.8781      0.00000
     22      13.1178      0.00000
     23      14.1162      0.00000
     24      14.2312      0.00000
     25      17.0233      0.00000
     26      17.3920      0.00000
     27      19.9378      0.00000
     28      20.2602      0.00000
     29      23.5533      0.00000
     30      23.7578      0.00000
     31      26.9593      0.00000
     32      27.0377      0.00000

 k-point    94 :       0.3636    0.1818    0.4545
  band No.  band energies     occupation 
      1      -9.7165      2.00000
      2      -9.7006      2.00000
      3      -8.2142      2.00000
      4      -8.2032      2.00000
      5      -8.1639      2.00000
      6      -8.1349      2.00000
      7      -8.0461      2.00000
      8      -8.0369      2.00000
      9      -7.9861      2.00000
     10      -7.9825      2.00000
     11      -6.5334      2.00000
     12      -6.4442      2.00000
     13      -1.1408      2.00000
     14      -1.0068      2.00000
     15       1.7503      2.00000
     16       2.0514      2.00000
     17       3.4131      2.00000
     18       3.6727      2.00000
     19      10.4012      0.00000
     20      10.7325      0.00000
     21      12.9606      0.00000
     22      13.1573      0.00000
     23      13.8979      0.00000
     24      14.1404      0.00000
     25      17.4894      0.00000
     26      17.7523      0.00000
     27      19.9594      0.00000
     28      20.3563      0.00000
     29      23.7483      0.00000
     30      24.1870      0.00000
     31      26.6317      0.00000
     32      26.6879      0.00000

 k-point    95 :       0.2727    0.2727    0.4545
  band No.  band energies     occupation 
      1      -9.7104      2.00000
      2      -9.6970      2.00000
      3      -8.1927      2.00000
      4      -8.1922      2.00000
      5      -8.1666      2.00000
      6      -8.1423      2.00000
      7      -8.0578      2.00000
      8      -8.0557      2.00000
      9      -7.9915      2.00000
     10      -7.9861      2.00000
     11      -6.5162      2.00000
     12      -6.4154      2.00000
     13      -0.9315      2.00000
     14      -0.8297      2.00000
     15       1.3399      2.00000
     16       1.6461      2.00000
     17       3.4424      2.00000
     18       3.6953      2.00000
     19      10.9913      0.00000
     20      11.0753      0.00000
     21      12.8329      0.00000
     22      12.8989      0.00000
     23      13.8578      0.00000
     24      14.0417      0.00000
     25      17.6564      0.00000
     26      18.0058      0.00000
     27      19.7363      0.00000
     28      20.0718      0.00000
     29      23.3746      0.00000
     30      23.6018      0.00000
     31      27.0638      0.00000
     32      27.0754      0.00000

 k-point    96 :       0.3636    0.2727    0.4545
  band No.  band energies     occupation 
      1      -9.6938      2.00000
      2      -9.6877      2.00000
      3      -8.1893      2.00000
      4      -8.1807      2.00000
      5      -8.1744      2.00000
      6      -8.1433      2.00000
      7      -8.0391      2.00000
      8      -8.0367      2.00000
      9      -8.0053      2.00000
     10      -8.0037      2.00000
     11      -6.3435      2.00000
     12      -6.3073      2.00000
     13      -1.0094      2.00000
     14      -0.9517      2.00000
     15       1.0154      2.00000
     16       1.3447      2.00000
     17       3.5821      2.00000
     18       3.6893      2.00000
     19      11.1335      0.00000
     20      11.3337      0.00000
     21      12.4457      0.00000
     22      12.7625      0.00000
     23      13.9763      0.00000
     24      13.9894      0.00000
     25      18.2853      0.00000
     26      18.4966      0.00000
     27      19.4952      0.00000
     28      19.7792      0.00000
     29      23.0244      0.00000
     30      23.2674      0.00000
     31      27.1539      0.00000
     32      27.1598      0.00000


--------------------------------------------------------------------------------------------------------


 soft charge-density along one line, spin component           1
         0         1         2         3         4         5         6         7         8         9
 total charge-density along one line
 
 pseudopotential strength for first ion, spin component:           1
-11.515  -0.000  -0.000   0.001  -0.000   0.514   0.000   0.000
 -0.000 -11.519  -0.000  -0.000   0.001   0.000   0.517   0.000
 -0.000  -0.000 -11.517   0.000  -0.000   0.000   0.000   0.516
  0.001  -0.000   0.000 -11.519  -0.000  -0.001   0.000  -0.000
 -0.000   0.001  -0.000  -0.000 -11.515   0.000  -0.001   0.000
  0.514   0.000   0.000  -0.001   0.000   4.853   0.000   0.000
  0.000   0.517   0.000   0.000  -0.001   0.000   4.851   0.000
  0.000   0.000   0.516  -0.000   0.000   0.000   0.000   4.852
 -0.001   0.000  -0.000   0.517   0.000   0.001   0.000  -0.000
  0.000  -0.001   0.000   0.000   0.514   0.000   0.001  -0.000
 -0.000   0.000   0.000  -0.000   0.000   0.000  -0.000  -0.000
  0.000  -0.000  -0.000   0.000  -0.000  -0.000   0.000   0.000
  0.000   0.001   0.000   0.000   0.001  -0.000   0.000  -0.000
  0.000   0.000  -0.002   0.000  -0.000  -0.000   0.000   0.000
  0.001   0.000   0.000   0.001  -0.000  -0.000  -0.000  -0.000
 -0.000   0.001  -0.000  -0.000   0.002   0.000  -0.003   0.000
 -0.000  -0.000  -0.002  -0.000   0.000   0.000  -0.000   0.004
  0.002  -0.000  -0.000   0.001   0.000  -0.003   0.000   0.000
 total augmentation occupancy for first ion, spin component:           1
  2.012  -0.000   0.000   0.002   0.000   0.033  -0.000   0.000   0.010  -0.000   0.000   0.000  -0.000   0.000  -0.017   0.000
  0.000   2.010  -0.000   0.000   0.002  -0.000   0.025  -0.000   0.000   0.010   0.000   0.000  -0.011  -0.000   0.000  -0.002
 -0.000  -0.000   2.013   0.000  -0.000   0.000  -0.000   0.039   0.000  -0.000  -0.001  -0.000   0.000   0.020   0.000   0.000
  0.002   0.000  -0.000   2.010   0.000   0.010  -0.000   0.000   0.025   0.000   0.000  -0.000   0.000  -0.000  -0.011   0.000
  0.000   0.002  -0.000  -0.000   2.012   0.000   0.010  -0.000  -0.000   0.033   0.000   0.000  -0.017  -0.000   0.000  -0.003
  0.033  -0.000  -0.000   0.010   0.000   0.091   0.000   0.000   0.034  -0.000   0.000   0.000   0.000  -0.000  -0.199   0.000
 -0.000   0.025  -0.000   0.000   0.010   0.000   0.064  -0.000   0.000   0.034   0.000   0.000  -0.137  -0.000  -0.000  -0.003
  0.000  -0.000   0.039  -0.000  -0.000   0.000  -0.000   0.115   0.000  -0.000  -0.007  -0.000   0.000   0.239   0.000   0.000
  0.010  -0.000   0.000   0.025   0.000   0.034   0.000   0.000   0.064   0.000   0.000  -0.000  -0.000   0.000  -0.137  -0.000
  0.000   0.010  -0.000  -0.000   0.033   0.000   0.034  -0.000   0.000   0.091   0.000   0.000  -0.199  -0.000   0.000  -0.005
  0.000   0.000  -0.001   0.000   0.000   0.000  -0.000  -0.007  -0.000   0.000   1.318   0.039   0.000   0.001   0.000   0.000
  0.000  -0.000  -0.000   0.000   0.000   0.000  -0.000  -0.000   0.000   0.000   0.039   0.002   0.000  -0.000   0.000   0.000
 -0.000  -0.011   0.000   0.000  -0.017   0.000  -0.137   0.000   0.000  -0.199   0.000   0.000   1.038   0.000  -0.000   0.023
  0.000   0.000   0.020   0.000  -0.000   0.000  -0.000   0.239   0.000  -0.000   0.001  -0.000   0.000   1.019   0.000   0.000
 -0.017   0.000  -0.000  -0.011  -0.000  -0.199   0.000   0.000  -0.137   0.000  -0.000   0.000   0.000   0.000   1.038   0.000
  0.000  -0.002   0.000   0.000  -0.003   0.000  -0.003   0.000   0.000  -0.005   0.000   0.000   0.023  -0.000  -0.000   0.001
  0.000  -0.000   0.003  -0.000  -0.000   0.000   0.000   0.005   0.000  -0.000   0.000  -0.000  -0.000   0.022   0.000   0.000
 -0.003   0.000  -0.000  -0.002   0.000  -0.005   0.000   0.000  -0.003   0.000   0.000   0.000   0.000   0.000   0.023   0.000


------------------------ aborting loop because EDIFF is reached ----------------------------------------


    CHARGE:  cpu time      0.0043: real time      0.0043
    FORLOC:  cpu time      0.0001: real time      0.0001
    FORNL :  cpu time      0.0164: real time      0.0165
    STRESS:  cpu time      0.2562: real time      0.2575
    FORCOR:  cpu time      0.0014: real time      0.0014
    FORHAR:  cpu time      0.0003: real time      0.0003
    MIXING:  cpu time      0.0003: real time      0.0003
    OFIELD:  cpu time      0.0001: real time      0.0001

  FORCE on cell =-STRESS in cart. coord.  units (eV):
  Direction    XX          YY          ZZ          XY          YZ          ZX
  --------------------------------------------------------------------------------------
  Alpha Z   194.03312   194.03312   194.03312
  Ewald   -1060.75180 -1060.75160 -1032.46336    -0.00008     0.00000     0.00000
  Hartree   382.55120   382.55125   405.94695    -0.00002    -0.00000     0.00001
  E(xc)    -200.93648  -200.93639  -200.91988     0.00008     0.00001     0.00000
  Local     118.51671   118.51353    66.67469    -0.00249    -0.00032    -0.00020
  n-local    -5.08219    -5.61759    -5.77540     1.65734     0.07108     0.17486
  augment   247.62788   247.62954   247.74959     0.00145     0.00002     0.00001
  Kinetic   321.06416   327.78076   324.87949    -7.24627    -1.00270    -1.42959
  Fock        0.00000     0.00000     0.00000     0.00000     0.00000     0.00000
  -------------------------------------------------------------------------------------
  Total       0.11261     0.11261     0.12520    -0.00000     0.00000     0.00000
  in kB       3.87676     3.87676     4.30994    -0.00000     0.00000     0.00000
  external pressure =        4.02 kB  Pullay stress =        0.00 kB


 VOLUME and BASIS-vectors are now :
 -----------------------------------------------------------------------------
  energy-cutoff  :      430.00
  volume of cell :       46.54
      direct lattice vectors                 reciprocal lattice vectors
     3.207506514  0.000000000  0.000000000     0.311768658  0.179999718  0.000000000
    -1.603753257  2.777782124  0.000000000     0.000000000  0.359999437  0.000000000
     0.000000000  0.000000000  5.223628227     0.000000000  0.000000000  0.191437820

  length of vectors
     3.207506514  3.207506514  5.223628227     0.359999437  0.359999437  0.191437820


 FORCES acting on ions
    electron-ion (+dipol)            ewald-force                    non-local-force                 convergence-correction
 -----------------------------------------------------------------------------------------------
   -.933E-04 -.892E-04 -.384E+01   -.239E-04 -.291E-04 0.381E+01   0.114E-15 -.807E-17 0.282E-01   -.405E-10 -.252E-10 0.601E-06
   -.178E-04 -.123E-03 -.384E+01   0.239E-04 0.291E-04 0.381E+01   -.400E-16 -.622E-17 0.282E-01   0.533E-10 0.238E-10 0.601E-06
   -.384E-04 0.108E-04 0.357E+01   -.215E-04 -.262E-04 -.381E+01   0.413E-17 -.454E-17 0.247E+00   -.175E-10 -.437E-11 -.224E-05
   0.108E-03 -.658E-05 0.357E+01   0.215E-04 0.262E-04 -.381E+01   -.416E-17 0.405E-17 0.247E+00   0.261E-10 0.446E-11 -.224E-05
 -----------------------------------------------------------------------------------------------
   -.413E-04 -.208E-03 -.545E+00   -.523E-14 0.701E-14 0.888E-15   0.736E-16 -.148E-16 0.551E+00   0.213E-10 -.131E-11 -.328E-05
 
 
 POSITION                                       TOTAL-FORCE (eV/Angst)
 -----------------------------------------------------------------------------------
     -0.00000      1.85185      5.21913         0.000000      0.000000      0.000019
      1.60375      0.92593      2.60732        -0.000000      0.000000      0.000019
     -0.00000      1.85185      1.96336        -0.000000     -0.000000     -0.000019
      1.60375      0.92593      4.57517         0.000000     -0.000000     -0.000019
 -----------------------------------------------------------------------------------
    total drift:                               -0.000041     -0.000208      0.006296


--------------------------------------------------------------------------------------------------------



  FREE ENERGIE OF THE ION-ELECTRON SYSTEM (eV)
  ---------------------------------------------------
  free  energy   TOTEN  =       -24.32551229 eV

  energy  without entropy=      -24.32551229  energy(sigma->0) =      -24.32551229
 


--------------------------------------------------------------------------------------------------------


    POTLOK:  cpu time      0.0033: real time      0.0052


--------------------------------------------------------------------------------------------------------


 stress matrix after NEB project (eV)
      0.11261      0.00000      0.00000
     -0.00000      0.11261     -0.00000
      0.00000      0.00000      0.12520
  FORCES: max atom, RMS     0.000019    0.000019
  FORCE total and by dimension    0.000038    0.000019
  Stress total and by dimension    0.202581    0.125198
 writing wavefunctions
     LOOP+:  cpu time     11.3935: real time     11.5299
    4ORBIT:  cpu time      0.0000: real time      0.0000

 total amount of memory used by VASP MPI-rank0    59668. kBytes
=======================================================================

   base      :      30000. kBytes
   nonl-proj :      27490. kBytes
   fftplans  :        101. kBytes
   grid      :        393. kBytes
   one-center:         62. kBytes
   wavefun   :       1622. kBytes
 
  
  
 General timing and accounting informations for this job:
 ========================================================
  
                  Total CPU time used (sec):       12.192
                            User time (sec):       11.868
                          System time (sec):        0.323
                         Elapsed time (sec):       12.825
  
                   Maximum memory used (kb):      180444.
                   Average memory used (kb):          N/A
  
                          Minor page faults:        13312
                          Major page faults:          136
                 Voluntary context switches:         1585
