GaN                                     
   1.00000000000000     
     3.207507    0.000000    0.000000
    -1.603753    2.777782    0.000000
     0.000000    0.000000    5.223628
   Ga   N 
     2     2
Direct
  0.333333  0.666667  0.999139
  0.666667  0.333333  0.499139
  0.333333  0.666667  0.375861
  0.666667  0.333333  0.875861
 
   32   32   56
 0.26244370437E+01 0.27027265187E+01 0.29411945495E+01 0.33513534169E+01 0.39535435653E+01
 0.47805201154E+01 0.58802847422E+01 0.73115156628E+01 0.91285293538E+01 0.11357963325E+02
 0.13970803651E+02 0.16856032832E+02 0.19828856500E+02 0.22893155579E+02 0.25839726494E+02
 0.28035824971E+02 0.28852895468E+02 0.28033956641E+02 0.25835761990E+02 0.22889501945E+02
 0.19829753273E+02 0.16862424858E+02 0.13978378165E+02 0.11361755353E+02 0.91278254227E+01
 0.73091030120E+01 0.58785760716E+01 0.47799248633E+01 0.39535169836E+01 0.33514202388E+01
 0.29411291320E+01 0.27025883214E+01 0.27030417530E+01 0.27029452251E+01 0.28616246317E+01
 0.31840183999E+01 0.36827294846E+01 0.43835823019E+01 0.53291738242E+01 0.65742001109E+01
 0.81712460488E+01 0.10151614210E+02 0.12506157708E+02 0.15167772346E+02 0.17997299432E+02
 0.20779880558E+02 0.23242191826E+02 0.25095814154E+02 0.26102237959E+02 0.26103158229E+02
 0.25096048408E+02 0.23237522094E+02 0.20770428095E+02 0.17988771286E+02 0.15166010116E+02
 0.12511241478E+02 0.10158356706E+02 0.81749382759E+01 0.65744474051E+01 0.53282727584E+01
 0.43831050825E+01 0.36826999465E+01 0.31841263712E+01 0.28617934789E+01 0.29417673073E+01
 0.28609076669E+01 0.29413314693E+01 0.31841367351E+01 0.35950814415E+01 0.41942475024E+01
 0.50227510868E+01 0.61378818585E+01 0.75975594336E+01 0.94414889934E+01 0.11674473285E+02
 0.14253008755E+02 0.17074294218E+02 0.19967351502E+02 0.22691263272E+02 0.24953762391E+02
 0.26461496848E+02 0.26993300305E+02 0.26465639223E+02 0.24958564971E+02 0.22691367298E+02
 0.19960319808E+02 0.17064318074E+02 0.14247230634E+02 0.11675370179E+02 0.94453393400E+01
 0.76001766819E+01 0.61386824577E+01 0.50228852844E+01 0.41940825097E+01 0.35947635151E+01
 0.31842331873E+01 0.33515924339E+01 0.31868101662E+01 0.31866541258E+01 0.33515137394E+01
 0.36825202846E+01 0.41935318944E+01 0.49233096758E+01 0.59329850624E+01 0.72884706024E+01
 0.90402564354E+01 0.11209587266E+02 0.13779156976E+02 0.16682274993E+02 0.19787334709E+02
 0.22881148890E+02 0.25666539488E+02 0.27797269528E+02 0.28957797602E+02 0.28959420608E+02
 0.27802913904E+02 0.25675432884E+02 0.22888229558E+02 0.19787943402E+02 0.16677834732E+02
 0.13774780283E+02 0.11207672534E+02 0.90395947576E+01 0.72880297718E+01 0.59330711013E+01
 0.49237400101E+01 0.41935636991E+01 0.36822879519E+01 0.39535169836E+01 0.37012626617E+01
 0.36174260447E+01 0.37015576150E+01 0.39535784550E+01 0.43825643649E+01 0.50219323349E+01
 0.59329590858E+01 0.71898117339E+01 0.88564872349E+01 0.10971148433E+02 0.13542042020E+02
 0.16543531301E+02 0.19896597256E+02 0.23432125518E+02 0.26859592646E+02 0.29778621337E+02
 0.31757049668E+02 0.32457577884E+02 0.31754552124E+02 0.29778406799E+02 0.26865027020E+02
 0.23440860836E+02 0.19903255369E+02 0.16545245098E+02 0.13540136976E+02 0.10968380557E+02
 0.88543694651E+01 0.71885936384E+01 0.59326107708E+01 0.50222471091E+01 0.43829397863E+01
 0.47814251363E+01 0.44357424828E+01 0.42667578924E+01 0.42676595703E+01 0.44366286349E+01
 0.47806108913E+01 0.53286825743E+01 0.61383772893E+01 0.72875384476E+01 0.88542490420E+01
 0.10895994271E+02 0.13443327160E+02 0.16506913747E+02 0.20068588329E+02 0.24030112427E+02
 0.28141432221E+02 0.31972182485E+02 0.34975109937E+02 0.36632872251E+02 0.36629144756E+02
 0.34965575384E+02 0.31962781480E+02 0.28139736035E+02 0.24036787463E+02 0.20075499752E+02
 0.16507638843E+02 0.13440770433E+02 0.10895635883E+02 0.88555816027E+01 0.72873949250E+01
 0.61375288002E+01 0.53293195999E+01 0.58829129103E+01 0.54363584105E+01 0.51842502585E+01
 0.51050376892E+01 0.51882841897E+01 0.54365511105E+01 0.58792627779E+01 0.65745179592E+01
 0.75993384788E+01 0.90382115634E+01 0.10967469963E+02 0.13441852441E+02 0.16501295157E+02
 0.20180573736E+02 0.24465842539E+02 0.29187842259E+02 0.33934640461E+02 0.38079593725E+02
 0.40933919173E+02 0.41955664369E+02 0.40933503590E+02 0.38071761895E+02 0.33922508068E+02
 0.29183090762E+02 0.24469157700E+02 0.20181357254E+02 0.16497424375E+02 0.13441924090E+02
 0.10972717395E+02 0.90401135683E+01 0.75964780185E+01 0.65745542212E+01 0.73142506631E+01
 0.67669121493E+01 0.64441538886E+01 0.62996891724E+01 0.63052567800E+01 0.64497178862E+01
 0.67612704343E+01 0.73085355901E+01 0.81752038079E+01 0.94458863562E+01 0.11207114434E+02
 0.13538435526E+02 0.16506391635E+02 0.20181148955E+02 0.24622480535E+02 0.29768527652E+02
 0.35285209306E+02 0.40527917825E+02 0.44680551325E+02 0.46991672799E+02 0.47000640376E+02
 0.44692877522E+02 0.40525738462E+02 0.35276516593E+02 0.29767655196E+02 0.24623862590E+02
 0.20175862988E+02 0.16503298234E+02 0.13545572762E+02 0.11212647990E+02 0.94398450734E+01
 0.81695508254E+01 0.91278254227E+01 0.85015044134E+01 0.81458865070E+01 0.79751817805E+01
 0.79336758943E+01 0.79860377074E+01 0.81453808404E+01 0.84902634152E+01 0.91288837224E+01
 0.10159925238E+02 0.11676140318E+02 0.13774272325E+02 0.16543684835E+02 0.20072943713E+02
 0.24465819912E+02 0.29764999603E+02 0.35764758798E+02 0.41880673738E+02 0.47237007285E+02
 0.50922810409E+02 0.52251886851E+02 0.50944540932E+02 0.47249777361E+02 0.41876343898E+02
 0.35764623683E+02 0.29773556113E+02 0.24464820861E+02 0.20062950911E+02 0.16545245098E+02
 0.13785656656E+02 0.11674732004E+02 0.10146854707E+02 0.11351817197E+02 0.10699513804E+02
 0.10385329528E+02 0.10266324074E+02 0.10245011655E+02 0.10254853300E+02 0.10276009062E+02
 0.10375290374E+02 0.10689984349E+02 0.11362316142E+02 0.12510886984E+02 0.14247725167E+02
 0.16679948274E+02 0.19904694866E+02 0.24035476815E+02 0.29181602788E+02 0.35280015207E+02
 0.41885044650E+02 0.48154109812E+02 0.53092048934E+02 0.55840986791E+02 0.55853168293E+02
 0.53106578410E+02 0.48147813155E+02 0.41877454310E+02 0.35292295631E+02 0.29193375533E+02
 0.24025349034E+02 0.19893029078E+02 0.16688638314E+02 0.14257515406E+02 0.12500849890E+02
 0.13961793562E+02 0.13364811946E+02 0.13191621457E+02 0.13270758598E+02 0.13475118716E+02
 0.13591829307E+02 0.13492553564E+02 0.13271057768E+02 0.13173899334E+02 0.13362972625E+02
 0.13977179475E+02 0.15166156323E+02 0.17066063145E+02 0.19790136956E+02 0.23442050567E+02
 0.28140250330E+02 0.33924646713E+02 0.40530693101E+02 0.47254566269E+02 0.53105708843E+02
 0.57131559622E+02 0.58580840435E+02 0.57140285116E+02 0.53096293624E+02 0.47233192758E+02
 0.40531232728E+02 0.33943429510E+02 0.28140889693E+02 0.23424276232E+02 0.19788462212E+02
 0.17081540853E+02 0.15166116932E+02 0.16850003176E+02 0.16438961078E+02 0.17035812890E+02
 0.18624912372E+02 0.20512179315E+02 0.21784634542E+02 0.21797647266E+02 0.20525468249E+02
 0.18612144777E+02 0.17021874364E+02 0.16450287159E+02 0.16862495550E+02 0.17988528541E+02
 0.19958979396E+02 0.22887317803E+02 0.26865779438E+02 0.31963481926E+02 0.38069762133E+02
 0.44688871200E+02 0.50942693345E+02 0.55856368515E+02 0.58587327734E+02 0.58592915438E+02
 0.55854958521E+02 0.50921070673E+02 0.44675308189E+02 0.38083836962E+02 0.31976010204E+02
 0.26852893473E+02 0.22875635680E+02 0.19972394874E+02 0.18000953169E+02 0.19829753025E+02
 0.20481986217E+02 0.23796381594E+02 0.29445419711E+02 0.35848155199E+02 0.40895097365E+02
 0.42818507837E+02 0.40911141285E+02 0.35848820139E+02 0.29430871362E+02 0.23797798676E+02
 0.20498219944E+02 0.19828494816E+02 0.20768430386E+02 0.22689807181E+02 0.25675281347E+02
 0.29778514195E+02 0.34962717376E+02 0.40926261129E+02 0.46993321561E+02 0.52252319261E+02
 0.55852547585E+02 0.57148144130E+02 0.55867167425E+02 0.52251886822E+02 0.46979250146E+02
 0.40929166751E+02 0.34980317690E+02 0.29778406799E+02 0.25659018110E+02 0.22690729123E+02
 0.20786217242E+02 0.22899224773E+02 0.25987668479E+02 0.34104800843E+02 0.46716101805E+02
 0.61270123022E+02 0.74073594027E+02 0.81570845186E+02 0.81579626422E+02 0.74082444444E+02
 0.61261971889E+02 0.46708947803E+02 0.34115237799E+02 0.25996569897E+02 0.22889455547E+02
 0.23237921115E+02 0.24959099072E+02 0.27803723363E+02 0.31755663526E+02 0.36628975005E+02
 0.41952378725E+02 0.46986803487E+02 0.50921240382E+02 0.53096330912E+02 0.53111711541E+02
 0.50943583467E+02 0.46987789176E+02 0.41946286480E+02 0.36637368988E+02 0.31763988494E+02
 0.27794054825E+02 0.24949187081E+02 0.23246793167E+02 0.25845440218E+02 0.32252021307E+02
 0.46677745752E+02 0.68695999727E+02 0.94968292891E+02 0.12010296164E+03 0.13823838586E+03
 0.14485610487E+03 0.13824666951E+03 0.12010126503E+03 0.94957608917E+02 0.68695962913E+02
 0.46688334050E+02 0.32253612561E+02 0.25837032400E+02 0.25096084889E+02 0.26465784002E+02
 0.28961815380E+02 0.32462715547E+02 0.36638352895E+02 0.40935942860E+02 0.44676796133E+02
 0.47228299935E+02 0.48143825040E+02 0.47246689016E+02 0.44686045592E+02 0.40928574280E+02
 0.36634025908E+02 0.32467259615E+02 0.28959939418E+02 0.26456595667E+02 0.25096155199E+02
 0.28037715243E+02 0.37789238762E+02 0.58887524955E+02 0.91505383896E+02 0.13198586426E+03
 0.17349802909E+03 0.20770599613E+03 0.22706113168E+03 0.22706463505E+03 0.20770859005E+03
 0.17349215561E+03 0.13198036441E+03 0.91508911886E+02 0.58891977530E+02 0.37785858041E+02
 0.28033602815E+02 0.26101913104E+02 0.26991672268E+02 0.28957705347E+02 0.31760931383E+02
 0.34982723372E+02 0.38085947232E+02 0.40526583068E+02 0.41870649846E+02 0.41873388587E+02
 0.40526533591E+02 0.38075483692E+02 0.34972153562E+02 0.31761101220E+02 0.28961388824E+02
 0.26989190272E+02 0.26099154882E+02 0.28852890389E+02 0.41042654123E+02 0.67757842534E+02
 0.11036294732E+03 0.16558532094E+03 0.22580117849E+03 0.28052248958E+03 0.31890163225E+03
 0.33272067423E+03 0.31890538764E+03 0.28052420781E+03 0.22579940853E+03 0.16558416189E+03
 0.11036333990E+03 0.67756740303E+02 0.41040592577E+02 0.28853091876E+02 0.26100101082E+02
 0.26456102271E+02 0.27792047470E+02 0.29778514195E+02 0.31977854996E+02 0.33941231316E+02
 0.35288001975E+02 0.35764758798E+02 0.35282013042E+02 0.33930303622E+02 0.31968730825E+02
 0.29778621337E+02 0.27799048720E+02 0.26460858672E+02 0.26099833016E+02 0.28036439594E+02
 0.41042187641E+02 0.70998557578E+02 0.12102708675E+03 0.18905288825E+03 0.26760324035E+03
 0.34487464062E+03 0.40708312319E+03 0.44186695577E+03 0.44186831115E+03 0.40708613055E+03
 0.34487705792E+03 0.26760370358E+03 0.18905207313E+03 0.12102657220E+03 0.70998978301E+02
 0.41043164011E+02 0.28037441149E+02 0.25095812633E+02 0.24949993443E+02 0.25659657644E+02
 0.26853432111E+02 0.28139978070E+02 0.29192159820E+02 0.29776667047E+02 0.29773749658E+02
 0.29187569999E+02 0.28140550825E+02 0.26859923386E+02 0.25666786038E+02 0.24953490130E+02
 0.25095979577E+02 0.25841744602E+02 0.37788272544E+02 0.67757114699E+02 0.12102657559E+03
 0.19747538905E+03 0.29083548124E+03 0.38920239078E+03 0.47689617898E+03 0.53779129799E+03
 0.55962167000E+03 0.53778895297E+03 0.47689577841E+03 0.38920465909E+03 0.29083681670E+03
 0.19747486884E+03 0.12102684953E+03 0.67758766406E+02 0.37789971124E+02 0.25844694066E+02
 0.23247299005E+02 0.22691828019E+02 0.22875242736E+02 0.23423445125E+02 0.24025192044E+02
 0.24467840750E+02 0.24627974801E+02 0.24468158539E+02 0.24031266084E+02 0.23434146357E+02
 0.22881667701E+02 0.22689880608E+02 0.23242298642E+02 0.22894693831E+02 0.32252437605E+02
 0.58889005609E+02 0.11036274840E+03 0.18905278162E+03 0.29083577759E+03 0.40502044986E+03
 0.51554941655E+03 0.60378855107E+03 0.65293467368E+03 0.65293113340E+03 0.60378342523E+03
 0.51554954270E+03 0.40502291940E+03 0.29083494243E+03 0.18905047516E+03 0.11036294182E+03
 0.58889762450E+02 0.32251730290E+02 0.22896947946E+02 0.20786212367E+02 0.19972940481E+02
 0.19788250938E+02 0.19892524076E+02 0.20063434548E+02 0.20177540706E+02 0.20178687718E+02
 0.20067855969E+02 0.19898424794E+02 0.19788701916E+02 0.19965465484E+02 0.20778101356E+02
 0.19828856351E+02 0.25991891992E+02 0.46683292739E+02 0.91506936600E+02 0.16558437307E+03
 0.26760340502E+03 0.38920331727E+03 0.51554898389E+03 0.62734093972E+03 0.70468495492E+03
 0.73237175561E+03 0.70468142200E+03 0.62733950143E+03 0.51555026673E+03 0.38920266884E+03
 0.26760087366E+03 0.16558418986E+03 0.91507411525E+02 0.46678662297E+02 0.25984604638E+02
 0.19828494915E+02 0.18003194054E+02 0.17082647748E+02 0.16687642599E+02 0.16543684835E+02
 0.16503487815E+02 0.16496958318E+02 0.16503169643E+02 0.16543531301E+02 0.16684346629E+02
 0.17073656043E+02 0.17994602170E+02 0.16854859893E+02 0.20489254127E+02 0.34111357242E+02
 0.68697297699E+02 0.13198246565E+03 0.22579957645E+03 0.34487663283E+03 0.47689669989E+03
 0.60378524186E+03 0.70468269219E+03 0.76077197655E+03 0.76077128398E+03 0.70468251873E+03
 0.60378687592E+03 0.47689735304E+03 0.34487532127E+03 0.22580023401E+03 0.13198602797E+03
 0.68697502353E+02 0.34104348673E+02 0.20480805971E+02 0.16851940038E+02 0.15167675877E+02
 0.14256490384E+02 0.13784147954E+02 0.13545449347E+02 0.13443371996E+02 0.13440653948E+02
 0.13540580946E+02 0.13781195341E+02 0.14254528310E+02 0.15166145975E+02 0.13969135784E+02
 0.16444329008E+02 0.23797679370E+02 0.46713324588E+02 0.94962265807E+02 0.17349448463E+03
 0.28052475725E+03 0.40708646653E+03 0.53778933814E+03 0.65293070652E+03 0.73237025349E+03
 0.76077048486E+03 0.73237014143E+03 0.65293309216E+03 0.53779272357E+03 0.40708648304E+03
 0.28052260908E+03 0.17349631757E+03 0.94968991416E+02 0.46718341918E+02 0.23796135739E+02
 0.16438212301E+02 0.13962262739E+02 0.12500602213E+02 0.11674472450E+02 0.11212608701E+02
 0.10973474670E+02 0.10897147928E+02 0.10969480566E+02 0.11210106077E+02 0.11676779328E+02
 0.12506264524E+02 0.11356665783E+02 0.13364218861E+02 0.17029186029E+02 0.29438346983E+02
 0.61265213542E+02 0.12010107058E+03 0.20770810120E+03 0.31890570271E+03 0.44186810698E+03
 0.55961982756E+03 0.65293168225E+03 0.70468217615E+03 0.70468149196E+03 0.65293193427E+03
 0.55962272743E+03 0.44186963829E+03 0.31890222964E+03 0.20770359966E+03 0.12010226329E+03
 0.61272326612E+02 0.29445826399E+02 0.17033000046E+02 0.13363923552E+02 0.11352982298E+02
 0.10147579128E+02 0.94394411624E+01 0.90391624906E+01 0.88563536267E+01 0.88554778276E+01
 0.90387866976E+01 0.94424399205E+01 0.10152671953E+02 0.91285293538E+01 0.10694413166E+02
 0.13181775536E+02 0.18618537697E+02 0.35849417262E+02 0.74077804093E+02 0.13824146316E+03
 0.22706263726E+03 0.33272147945E+03 0.44186786015E+03 0.53779104824E+03 0.60378804663E+03
 0.62734103499E+03 0.60378556407E+03 0.53778940127E+03 0.44186802101E+03 0.33272078263E+03
 0.22705939591E+03 0.13823704844E+03 0.74074317874E+02 0.35848835986E+02 0.18623008020E+02
 0.13190483940E+02 0.10701484777E+02 0.91288837224E+01 0.81684938847E+01 0.75950016401E+01
 0.72876004467E+01 0.71898117339E+01 0.72867361351E+01 0.75969212583E+01 0.81723548893E+01
 0.73126999329E+01 0.84964934863E+01 0.10379434774E+02 0.13270177029E+02 0.20520026882E+02
 0.40904208179E+02 0.81574521616E+02 0.14485442748E+03 0.22706226920E+03 0.31890394105E+03
 0.40708567877E+03 0.47689913308E+03 0.51555251305E+03 0.51555058558E+03 0.47689547238E+03
 0.40708381870E+03 0.31890488576E+03 0.22706450055E+03 0.14485533725E+03 0.81571129560E+02
 0.40896104071E+02 0.20512561919E+02 0.13270220403E+02 0.10386412800E+02 0.85024962533E+01
 0.73131922021E+01 0.65736803046E+01 0.61380612864E+01 0.59338552205E+01 0.59326662185E+01
 0.61370442038E+01 0.65749309494E+01 0.58813861863E+01 0.67643896317E+01 0.81460210598E+01
 0.10271212939E+02 0.13484174858E+02 0.21791471622E+02 0.42818511792E+02 0.81575362978E+02
 0.13824257712E+03 0.20770717769E+03 0.28052203579E+03 0.34487518486E+03 0.38920451384E+03
 0.40502245026E+03 0.38920343589E+03 0.34487503963E+03 0.28052370801E+03 0.20771020415E+03
 0.13824703932E+03 0.81580270156E+02 0.42819633572E+02 0.21785580529E+02 0.13474868288E+02
 0.10265724290E+02 0.81464822845E+01 0.67667647009E+01 0.58824981726E+01 0.53298362318E+01
 0.50230337790E+01 0.49238284865E+01 0.50222878180E+01 0.53292806403E+01 0.47807756978E+01
 0.54356426844E+01 0.64467649087E+01 0.79807855694E+01 0.10249752107E+02 0.13591359707E+02
 0.21790869986E+02 0.40904446944E+02 0.74079631930E+02 0.12010264541E+03 0.17349392086E+03
 0.22579751329E+03 0.26760149618E+03 0.29083459115E+03 0.29083498818E+03 0.26760302261E+03
 0.22579958832E+03 0.17349461162E+03 0.12010242849E+03 0.74082415364E+02 0.40911619930E+02
 0.21797320699E+02 0.13591228148E+02 0.10243966331E+02 0.79752447219E+01 0.64448258176E+01
 0.54359489124E+01 0.47811623508E+01 0.43831080829E+01 0.41936152818E+01 0.41936453044E+01
 0.43830869199E+01 0.39535435653E+01 0.44358137986E+01 0.51858774177E+01 0.63024027313E+01
 0.79334012096E+01 0.10249572800E+02 0.13483073510E+02 0.20518767721E+02 0.35849422644E+02
 0.61266600640E+02 0.94963959103E+02 0.13198360330E+03 0.16558443102E+03 0.18905139201E+03
 0.19747345297E+03 0.18905228239E+03 0.16558540686E+03 0.13198225208E+03 0.94958669489E+02
 0.61260361426E+02 0.35848176428E+02 0.20524685050E+02 0.13491704186E+02 0.10254873535E+02
 0.79336758943E+01 0.63001854050E+01 0.51839473510E+01 0.44350520859E+01 0.39535784550E+01
 0.36824243654E+01 0.35944432662E+01 0.36821997770E+01 0.33517560800E+01 0.37017646194E+01
 0.42672245047E+01 0.51052115542E+01 0.63028816703E+01 0.79813317198E+01 0.10271156892E+02
 0.13269395499E+02 0.18617379577E+02 0.29437345554E+02 0.46713281445E+02 0.68698896646E+02
 0.91509618746E+02 0.11036462618E+03 0.12102657702E+03 0.12102693309E+03 0.11036536309E+03
 0.91509492758E+02 0.68695986910E+02 0.46706809092E+02 0.29429595341E+02 0.18612786580E+02
 0.13270702917E+02 0.10276664894E+02 0.79866330116E+01 0.63051273914E+01 0.51049816416E+01
 0.42665619604E+01 0.37016721426E+01 0.33519765025E+01 0.31840806875E+01 0.31839676313E+01
 0.29416679929E+01 0.31871867401E+01 0.36177006262E+01 0.42672805522E+01 0.51863508611E+01
 0.64473671067E+01 0.81466490604E+01 0.10380272429E+02 0.13182248980E+02 0.17028236008E+02
 0.23795542056E+02 0.34109847216E+02 0.46683783181E+02 0.58890916800E+02 0.67758694475E+02
 0.70998866782E+02 0.67758353622E+02 0.58891669094E+02 0.46686981014E+02 0.34114196580E+02
 0.23796863965E+02 0.17023740272E+02 0.13174563413E+02 0.10375044757E+02 0.81463599504E+01
 0.64496481552E+01 0.51881136538E+01 0.42679115499E+01 0.36178994881E+01 0.31871729365E+01
 0.29414962012E+01 0.28617314478E+01 0.27027945714E+01 0.28607391061E+01 0.31867720719E+01
 0.37014059987E+01 0.44358055753E+01 0.54354551546E+01 0.67639749635E+01 0.84969164726E+01
 0.10696043491E+02 0.13365584457E+02 0.16443914511E+02 0.20487321636E+02 0.25989721112E+02
 0.32250975390E+02 0.37787871326E+02 0.41042061914E+02 0.41040788640E+02 0.37785559898E+02
 0.32251619520E+02 0.25996639676E+02 0.20498300127E+02 0.16451451192E+02 0.13364397278E+02
 0.10688814364E+02 0.84905238982E+01 0.67618325509E+01 0.54359437423E+01 0.44364814720E+01
 0.37016188499E+01 0.31867060238E+01 0.28604929986E+01 0.27026373729E+01 0.25070752780E+01
 0.25787812550E+01 0.27981016989E+01 0.31769534970E+01 0.37338688598E+01 0.44955658256E+01
 0.54995049780E+01 0.67919721310E+01 0.84174697017E+01 0.10398818393E+02 0.12710533650E+02
 0.15253497250E+02 0.17855364993E+02 0.20504435621E+02 0.23063381328E+02 0.24984744141E+02
 0.25702537822E+02 0.24982982338E+02 0.23060044849E+02 0.20501717570E+02 0.17856538133E+02
 0.15259004722E+02 0.12716709668E+02 0.10401659915E+02 0.84165439242E+01 0.67897506859E+01
 0.54980661901E+01 0.44951390780E+01 0.37338333127E+01 0.31769244884E+01 0.27980266808E+01
 0.25787145864E+01 0.25790502279E+01 0.25789122513E+01 0.27228885446E+01 0.30161552494E+01
 0.34696453755E+01 0.41029382226E+01 0.49471088810E+01 0.60428830907E+01 0.74313246564E+01
 0.91382521810E+01 0.11155819811E+02 0.13425047659E+02 0.15823989412E+02 0.18168075400E+02
 0.20228695514E+02 0.21770325761E+02 0.22600882747E+02 0.22601547125E+02 0.21770517824E+02
 0.20225331759E+02 0.18161084141E+02 0.15817441451E+02 0.13423401421E+02 0.11159431972E+02
 0.91433838619E+01 0.74343133046E+01 0.60432203061E+01 0.49464264531E+01 0.41024669643E+01
 0.34695274817E+01 0.30162584201E+01 0.27231287479E+01 0.27985324978E+01 0.27258721447E+01
 0.27981636918E+01 0.30162545449E+01 0.33840921529E+01 0.39154471165E+01 0.46392622555E+01
 0.55974383702E+01 0.68344483295E+01 0.83821912262E+01 0.10243586958E+02 0.12378249108E+02
 0.14693440310E+02 0.17041686352E+02 0.19226447935E+02 0.21021250380E+02 0.22207412253E+02
 0.22624037278E+02 0.22210882514E+02 0.21025159887E+02 0.19226315130E+02 0.17035647629E+02
 0.14685125972E+02 0.12373573712E+02 0.10244509713E+02 0.83855637792E+01 0.68367625639E+01
 0.55981751402E+01 0.46393840755E+01 0.39153148028E+01 0.33838560361E+01 0.30163609163E+01
 0.31770826229E+01 0.30305153207E+01 0.30304315868E+01 0.31770927471E+01 0.34694341808E+01
 0.39148043058E+01 0.45393906397E+01 0.53878022174E+01 0.65107177863E+01 0.79484518751E+01
 0.97164331448E+01 0.11793226090E+02 0.14111003562E+02 0.16549290707E+02 0.18932967471E+02
 0.21039669988E+02 0.22627030237E+02 0.23483228341E+02 0.23484472141E+02 0.22631228516E+02
 0.21046100403E+02 0.18937956664E+02 0.16549652439E+02 0.14107913213E+02 0.11790265306E+02
 0.97150855920E+01 0.79477973347E+01 0.65102357385E+01 0.53879033485E+01 0.45398657120E+01
 0.39149235230E+01 0.34692386981E+01 0.37338333127E+01 0.35134520696E+01 0.34395516135E+01
 0.35137570439E+01 0.37338929902E+01 0.41020169387E+01 0.46386437971E+01 0.53879145554E+01
 0.64072637595E+01 0.77481665540E+01 0.94391556653E+01 0.11476482190E+02 0.13818845466E+02
 0.16378894691E+02 0.19009648729E+02 0.21495763202E+02 0.23567737878E+02 0.24950527721E+02
 0.25436174943E+02 0.24948662063E+02 0.23567701883E+02 0.21500218765E+02 0.19016794865E+02
 0.16384398016E+02 0.13820270385E+02 0.11474862862E+02 0.94368100052E+01 0.77463531991E+01
 0.64061428558E+01 0.53875048907E+01 0.46388782585E+01 0.41023716461E+01 0.44963377269E+01
 0.42040574418E+01 0.40582669539E+01 0.40591065322E+01 0.42049083873E+01 0.44956123984E+01
 0.49466821089E+01 0.55980508131E+01 0.65100310831E+01 0.77462176239E+01 0.93510652298E+01
 0.11336418718E+02 0.13682745760E+02 0.16339149385E+02 0.19202550789E+02 0.22084605448E+02
 0.24701765268E+02 0.26715177539E+02 0.27814225020E+02 0.27811579440E+02 0.26708384838E+02
 0.24695151272E+02 0.22083764066E+02 0.19207768376E+02 0.16344103481E+02 0.13682836865E+02
 0.11334351147E+02 0.93510201917E+01 0.77473115247E+01 0.65096615147E+01 0.55972096366E+01
 0.49472894605E+01 0.55015873845E+01 0.51428326471E+01 0.49343521946E+01 0.48675314030E+01
 0.49376648469E+01 0.51430172135E+01 0.54985976949E+01 0.60432054606E+01 0.68359442104E+01
 0.79465251707E+01 0.94360151368E+01 0.11335302337E+02 0.13642733771E+02 0.16336823506E+02
 0.19364382471E+02 0.22588102321E+02 0.25740020902E+02 0.28438680081E+02 0.30275041663E+02
 0.30928978952E+02 0.30274537504E+02 0.28432167752E+02 0.25730177329E+02 0.22584367419E+02
 0.19367154209E+02 0.16337416168E+02 0.13639490796E+02 0.11335316650E+02 0.94403311997E+01
 0.79481886145E+01 0.68337471864E+01 0.60433228023E+01 0.67939362090E+01 0.63843052597E+01
 0.61368979561E+01 0.60228171788E+01 0.60270606917E+01 0.61410324797E+01 0.63798244425E+01
 0.67896194503E+01 0.74344650027E+01 0.83855309508E+01 0.97144234068E+01 0.11473877567E+02
 0.13682225441E+02 0.16336927890E+02 0.19424324258E+02 0.22870670662E+02 0.26459001420E+02
 0.29803677230E+02 0.32424614812E+02 0.33877358294E+02 0.33884179426E+02 0.32433501196E+02
 0.29800780664E+02 0.26451501972E+02 0.22870418404E+02 0.19426269510E+02 0.16332997500E+02
 0.13679383700E+02 0.11479288708E+02 0.97191129806E+01 0.83811451108E+01 0.74299971324E+01
 0.84165439242E+01 0.79919017928E+01 0.77564237514E+01 0.76435285811E+01 0.76166894216E+01
 0.76521490024E+01 0.77559662732E+01 0.79829600908E+01 0.84175587151E+01 0.91447890707E+01
 0.10245186025E+02 0.11789796972E+02 0.13818867681E+02 0.16341915922E+02 0.19364469993E+02
 0.22868416175E+02 0.26714342408E+02 0.30560151794E+02 0.33898163203E+02 0.36190317601E+02
 0.37018018936E+02 0.36207877520E+02 0.33908554196E+02 0.30556709418E+02 0.26714115221E+02
 0.22875127407E+02 0.19363633014E+02 0.16334010306E+02 0.13820270385E+02 0.11799001697E+02
 0.10244003896E+02 0.91341536949E+01 0.10393668033E+02 0.10016839986E+02 0.98793233518E+01
 0.98574959786E+01 0.98748169770E+01 0.98830938676E+01 0.98658322537E+01 0.98711974121E+01
 0.10008723499E+02 0.10402156419E+02 0.11159874558E+02 0.12374329653E+02 0.14109030391E+02
 0.16384905100E+02 0.19207063254E+02 0.22584184527E+02 0.26454694602E+02 0.30562941398E+02
 0.34430855072E+02 0.37472722649E+02 0.39161697974E+02 0.39171597609E+02 0.37484989121E+02
 0.34426916062E+02 0.30557612061E+02 0.26464145668E+02 0.22592592446E+02 0.19198577845E+02
 0.16376165811E+02 0.14116529521E+02 0.12381798739E+02 0.11151104448E+02 0.12703449509E+02
 0.12460842128E+02 0.12529949406E+02 0.12741996262E+02 0.12994160325E+02 0.13117966519E+02
 0.13008160255E+02 0.12742250225E+02 0.12515671310E+02 0.12459195322E+02 0.12715651394E+02
 0.13423600898E+02 0.14686696903E+02 0.16551540566E+02 0.19017780008E+02 0.22084130792E+02
 0.25731811179E+02 0.29804678216E+02 0.33912366288E+02 0.37484325477E+02 0.39932986507E+02
 0.40812322894E+02 0.39939927762E+02 0.37476764093E+02 0.33895294037E+02 0.29805199332E+02
 0.25746958682E+02 0.22084729569E+02 0.19003534706E+02 0.16550043718E+02 0.14698891948E+02
 0.13423503918E+02 0.15249109998E+02 0.15256067586E+02 0.16067338975E+02 0.17714194015E+02
 0.19574401873E+02 0.20805927249E+02 0.20815827214E+02 0.19584284711E+02 0.17704072940E+02
 0.16056758173E+02 0.15264994490E+02 0.15258256465E+02 0.15816958828E+02 0.17035302251E+02
 0.18937845422E+02 0.21500284460E+02 0.24694726819E+02 0.28430583380E+02 0.32431360538E+02
 0.36207185652E+02 0.39174007620E+02 0.40817233621E+02 0.40821984472E+02 0.39173034160E+02
 0.36189088270E+02 0.32419420949E+02 0.28441829330E+02 0.24705778354E+02 0.21490564364E+02
 0.18927903806E+02 0.17045309208E+02 0.15827205525E+02 0.17856537980E+02 0.18869748715E+02
 0.22278650009E+02 0.27830175324E+02 0.34041295998E+02 0.38909522746E+02 0.40758581738E+02
 0.38922403832E+02 0.34041902836E+02 0.27818626345E+02 0.22279854121E+02 0.18882717360E+02
 0.17855395590E+02 0.18159319869E+02 0.19224983353E+02 0.21045996508E+02 0.23567851629E+02
 0.26706168336E+02 0.30268814872E+02 0.33878384137E+02 0.37018384850E+02 0.39170931183E+02
 0.39946246666E+02 0.39182661018E+02 0.37018018936E+02 0.33867022741E+02 0.30271016309E+02
 0.26720157350E+02 0.23567701883E+02 0.21032971106E+02 0.19225809313E+02 0.18173719662E+02
 0.20509481256E+02 0.23840726086E+02 0.31873071927E+02 0.44154908369E+02 0.58254625534E+02
 0.70626874710E+02 0.77860550130E+02 0.77868100939E+02 0.70634742271E+02 0.58248077728E+02
 0.44148704133E+02 0.31881573699E+02 0.23848547894E+02 0.20501788556E+02 0.20224988683E+02
 0.21025245661E+02 0.22632532701E+02 0.24950224149E+02 0.27810912597E+02 0.30925136120E+02
 0.33873178063E+02 0.36189992131E+02 0.37476793534E+02 0.37488479620E+02 0.36206977215E+02
 0.33874245019E+02 0.30921447009E+02 0.27818145879E+02 0.24956186828E+02 0.22624087853E+02
 0.21017627944E+02 0.20232761206E+02 0.23067842117E+02 0.29567991378E+02 0.43689561171E+02
 0.65088054524E+02 0.90554723534E+02 0.11488119170E+03 0.13241372160E+03 0.13880645557E+03
 0.13242028029E+03 0.11487969309E+03 0.90546080175E+02 0.65088113641E+02 0.43698231681E+02
 0.29569375799E+02 0.23061121319E+02 0.21770612198E+02 0.22211030265E+02 0.23486320762E+02
 0.25440118659E+02 0.27818444540E+02 0.30276615231E+02 0.32421698959E+02 0.33891305770E+02
 0.34422630044E+02 0.33905963562E+02 0.32429033481E+02 0.30270762498E+02 0.27815190523E+02
 0.25443975302E+02 0.23484863421E+02 0.22203587971E+02 0.21770620317E+02 0.24986070487E+02
 0.34673526305E+02 0.55235940840E+02 0.86915655073E+02 0.12617783366E+03 0.16639291176E+03
 0.19949487667E+03 0.21820805266E+03 0.21821051383E+03 0.19949635559E+03 0.16638802303E+03
 0.12617361979E+03 0.86918491873E+02 0.55239230492E+02 0.34670736671E+02 0.24983037645E+02
 0.22600580594E+02 0.22622254414E+02 0.23482995138E+02 0.24954430468E+02 0.26722231976E+02
 0.28443570582E+02 0.29801352592E+02 0.30551390747E+02 0.30554349747E+02 0.29802584185E+02
 0.28435354457E+02 0.26712817418E+02 0.24953860523E+02 0.23486162685E+02 0.22620711654E+02
 0.22598323928E+02 0.25702533231E+02 0.37687226870E+02 0.63654755747E+02 0.10501437335E+03
 0.15858924883E+03 0.21694902028E+03 0.26991811228E+03 0.30702801343E+03 0.32038143307E+03
 0.30703119467E+03 0.26991959049E+03 0.21694749858E+03 0.15858813914E+03 0.10501458442E+03
 0.63653828165E+02 0.37685505620E+02 0.25702617150E+02 0.22599127110E+02 0.22203229906E+02
 0.22623128622E+02 0.23567851629E+02 0.24706260534E+02 0.25745071337E+02 0.26461047494E+02
 0.26714342408E+02 0.26456454888E+02 0.25736499707E+02 0.24698927628E+02 0.23567737878E+02
 0.22628511094E+02 0.22206906436E+02 0.22598908048E+02 0.24985191548E+02 0.37686734467E+02
 0.66735693193E+02 0.11526553887E+03 0.18125717556E+03 0.25739525224E+03 0.33219396107E+03
 0.39233126210E+03 0.42592490047E+03 0.42592621356E+03 0.39233410401E+03 0.33219612360E+03
 0.25739557459E+03 0.18125644189E+03 0.11526515531E+03 0.66736098199E+02 0.37687596946E+02
 0.24986145688E+02 0.21770394113E+02 0.21017931804E+02 0.21033476577E+02 0.21490404796E+02
 0.22083912706E+02 0.22592627641E+02 0.22877761931E+02 0.22874871244E+02 0.22587884236E+02
 0.22083858030E+02 0.21495974109E+02 0.21039843182E+02 0.21021032294E+02 0.21770441348E+02
 0.23065036852E+02 0.34672616639E+02 0.63654025296E+02 0.11526512011E+03 0.18939742905E+03
 0.27988400320E+03 0.37509826217E+03 0.45985164385E+03 0.51863040402E+03 0.53968745762E+03
 0.51862844786E+03 0.45985135740E+03 0.37510026079E+03 0.27988521537E+03 0.18939703110E+03
 0.11526537829E+03 0.63655491132E+02 0.34674065159E+02 0.23067264428E+02 0.20232520625E+02
 0.19226641285E+02 0.18928183843E+02 0.19002861917E+02 0.19198838227E+02 0.19366127925E+02