   4   4   0   0
  0.1163531E+02  0.3207507E-09  0.3207507E-09  0.5223628E-09  0.5000000E-15
  1.000000000000000E-004
  CAR 
 GaN                                     
     30.52116066    -12.67064991  301      5.34393442      1.00000000
    -12.671  0.0000E+00  0.0000E+00
    -12.527  0.0000E+00  0.0000E+00
    -12.383  0.0000E+00  0.0000E+00
    -12.239  0.0000E+00  0.0000E+00
    -12.095  0.0000E+00  0.0000E+00
    -11.951  0.0000E+00  0.0000E+00
    -11.807  0.0000E+00  0.0000E+00
    -11.663  0.0000E+00  0.0000E+00
    -11.519  0.0000E+00  0.0000E+00
    -11.375  0.0000E+00  0.0000E+00
    -11.231  0.0000E+00  0.0000E+00
    -11.087  0.0000E+00  0.0000E+00
    -10.943  0.4908E-13  0.7066E-14
    -10.799  0.3184E-04  0.4584E-05
    -10.655  0.6046E-01  0.8709E-02
    -10.511  0.3360E+00  0.5708E-01
    -10.367  0.5935E+00  0.1425E+00
    -10.223  0.9174E+00  0.2746E+00
    -10.079  0.1449E+01  0.4832E+00
     -9.935  0.2656E+01  0.8656E+00
     -9.791  0.7326E+01  0.1920E+01
     -9.647  0.1386E+02  0.3916E+01
     -9.503  0.5826E+00  0.4000E+01
     -9.359  0.1718E-06  0.4000E+01
     -9.215  0.0000E+00  0.4000E+01
     -9.071  0.0000E+00  0.4000E+01
     -8.927  0.0000E+00  0.4000E+01
     -8.783  0.0000E+00  0.4000E+01
     -8.639  0.0000E+00  0.4000E+01
     -8.495  0.6030E-08  0.4000E+01
     -8.351  0.1016E+00  0.4015E+01
     -8.207  0.2478E+02  0.7583E+01
     -8.064  0.4374E+02  0.1388E+02
     -7.920  0.4298E+02  0.2007E+02
     -7.776  0.2983E+01  0.2050E+02
     -7.632  0.1286E+01  0.2068E+02
     -7.488  0.1161E+01  0.2085E+02
     -7.344  0.1417E+01  0.2105E+02
     -7.200  0.1313E+01  0.2124E+02
     -7.056  0.1700E+01  0.2149E+02
     -6.912  0.1749E+01  0.2174E+02
     -6.768  0.2502E+01  0.2210E+02
     -6.624  0.2521E+01  0.2246E+02
     -6.480  0.2763E+01  0.2286E+02
     -6.336  0.2784E+01  0.2326E+02
     -6.192  0.3336E+01  0.2374E+02
     -6.048  0.1740E+01  0.2399E+02
     -5.904  0.5640E-01  0.2400E+02
     -5.760  0.1794E-06  0.2400E+02
     -5.616  0.0000E+00  0.2400E+02
     -5.472  0.0000E+00  0.2400E+02
     -5.328  0.0000E+00  0.2400E+02
     -5.184  0.0000E+00  0.2400E+02
     -5.040  0.0000E+00  0.2400E+02
     -4.896  0.0000E+00  0.2400E+02
     -4.752  0.0000E+00  0.2400E+02
     -4.608  0.0000E+00  0.2400E+02
     -4.464  0.0000E+00  0.2400E+02
     -4.320  0.0000E+00  0.2400E+02
     -4.176  0.0000E+00  0.2400E+02
     -4.032  0.0000E+00  0.2400E+02
     -3.888  0.0000E+00  0.2400E+02
     -3.744  0.0000E+00  0.2400E+02
     -3.600  0.0000E+00  0.2400E+02
     -3.456  0.0000E+00  0.2400E+02
     -3.312  0.0000E+00  0.2400E+02
     -3.168  0.0000E+00  0.2400E+02
     -3.024  0.0000E+00  0.2400E+02
     -2.881  0.0000E+00  0.2400E+02
     -2.737  0.0000E+00  0.2400E+02
     -2.593  0.0000E+00  0.2400E+02
     -2.449  0.0000E+00  0.2400E+02
     -2.305  0.0000E+00  0.2400E+02
     -2.161  0.0000E+00  0.2400E+02
     -2.017  0.9554E-11  0.2400E+02
     -1.873  0.1379E-03  0.2400E+02
     -1.729  0.2877E-01  0.2400E+02
     -1.585  0.9812E-01  0.2402E+02
     -1.441  0.3789E+00  0.2407E+02
     -1.297  0.9831E+00  0.2421E+02
     -1.153  0.1474E+01  0.2443E+02
     -1.009  0.1976E+01  0.2471E+02
     -0.865  0.2546E+01  0.2508E+02
     -0.721  0.2711E+01  0.2547E+02
     -0.577  0.2501E+01  0.2583E+02
     -0.433  0.1590E+01  0.2606E+02
     -0.289  0.1366E+01  0.2625E+02
     -0.145  0.1427E+01  0.2646E+02
     -0.001  0.1443E+01  0.2667E+02
      0.143  0.1315E+01  0.2686E+02
      0.287  0.1020E+01  0.2700E+02
      0.431  0.7900E+00  0.2712E+02
      0.575  0.1037E+01  0.2727E+02
      0.719  0.8547E+00  0.2739E+02
      0.863  0.7158E+00  0.2749E+02
      1.007  0.1569E+01  0.2772E+02
      1.151  0.1633E+01  0.2795E+02
      1.295  0.1255E+01  0.2813E+02
      1.439  0.1500E+01  0.2835E+02
      1.583  0.1486E+01  0.2856E+02
      1.727  0.1307E+01  0.2875E+02
      1.871  0.1518E+01  0.2897E+02
      2.015  0.1947E+01  0.2925E+02
      2.159  0.1591E+01  0.2948E+02
      2.303  0.1774E+01  0.2973E+02
      2.446  0.1836E+01  0.3000E+02
      2.590  0.2409E+01  0.3035E+02
      2.734  0.2431E+01  0.3070E+02
      2.878  0.2276E+01  0.3102E+02
      3.022  0.2267E+01  0.3135E+02
      3.166  0.2900E+01  0.3177E+02
      3.310  0.2996E+01  0.3220E+02
      3.454  0.2889E+01  0.3261E+02
      3.598  0.3468E+01  0.3311E+02
      3.742  0.3977E+01  0.3369E+02
      3.886  0.3353E+01  0.3417E+02
      4.030  0.2857E+01  0.3458E+02
      4.174  0.2430E+01  0.3493E+02
      4.318  0.1903E+01  0.3520E+02
      4.462  0.1643E+01  0.3544E+02
      4.606  0.1226E+01  0.3562E+02
      4.750  0.1107E+01  0.3578E+02
      4.894  0.8500E+00  0.3590E+02
      5.038  0.5498E+00  0.3598E+02
      5.182  0.1486E+00  0.3600E+02
      5.326  0.6283E-03  0.3600E+02
      5.470  0.2369E-10  0.3600E+02
      5.614  0.0000E+00  0.3600E+02
      5.758  0.0000E+00  0.3600E+02
      5.902  0.0000E+00  0.3600E+02
      6.046  0.0000E+00  0.3600E+02
      6.190  0.0000E+00  0.3600E+02
      6.334  0.0000E+00  0.3600E+02
      6.478  0.0000E+00  0.3600E+02
      6.622  0.2197E-17  0.3600E+02
      6.766  0.1375E-06  0.3600E+02
      6.910  0.1614E-02  0.3600E+02
      7.054  0.5785E-02  0.3600E+02
      7.198  0.3051E-02  0.3600E+02
      7.342  0.4120E-01  0.3601E+02
      7.486  0.1397E-01  0.3601E+02
      7.630  0.3380E-01  0.3601E+02
      7.773  0.4083E-01  0.3602E+02
      7.917  0.7777E-01  0.3603E+02
      8.061  0.6650E-01  0.3604E+02
      8.205  0.6611E-01  0.3605E+02
      8.349  0.9890E-01  0.3606E+02
      8.493  0.1321E+00  0.3608E+02
      8.637  0.1691E+00  0.3611E+02
      8.781  0.1127E+00  0.3612E+02
      8.925  0.1955E+00  0.3615E+02
      9.069  0.2798E+00  0.3619E+02
      9.213  0.3923E+00  0.3625E+02
      9.357  0.5262E+00  0.3632E+02
      9.501  0.1059E+01  0.3648E+02
      9.645  0.1592E+01  0.3671E+02
      9.789  0.1187E+01  0.3688E+02
      9.933  0.1272E+01  0.3706E+02
     10.077  0.1832E+01  0.3732E+02
     10.221  0.1453E+01  0.3753E+02
     10.365  0.1466E+01  0.3774E+02
     10.509  0.2343E+01  0.3808E+02
     10.653  0.1658E+01  0.3832E+02
     10.797  0.2213E+01  0.3864E+02
     10.941  0.1589E+01  0.3887E+02
     11.085  0.2019E+01  0.3916E+02
     11.229  0.1592E+01  0.3939E+02
     11.373  0.1082E+01  0.3954E+02
     11.517  0.1301E+01  0.3973E+02
     11.661  0.1221E+01  0.3991E+02
     11.805  0.9188E+00  0.4004E+02
     11.949  0.8588E+00  0.4016E+02
     12.093  0.1268E+01  0.4035E+02
     12.237  0.1306E+01  0.4053E+02
     12.381  0.1665E+01  0.4077E+02
     12.525  0.2019E+01  0.4106E+02
     12.669  0.2262E+01  0.4139E+02
     12.813  0.2507E+01  0.4175E+02
     12.956  0.3039E+01  0.4219E+02
     13.100  0.4021E+01  0.4277E+02
     13.244  0.3531E+01  0.4328E+02
     13.388  0.2080E+01  0.4357E+02
     13.532  0.1207E+01  0.4375E+02
     13.676  0.4810E+00  0.4382E+02
     13.820  0.5003E+00  0.4389E+02
     13.964  0.9364E+00  0.4402E+02
     14.108  0.1103E+01  0.4418E+02
     14.252  0.1133E+01  0.4435E+02
     14.396  0.1327E+01  0.4454E+02
     14.540  0.1927E+01  0.4481E+02
     14.684  0.2864E+01  0.4523E+02
     14.828  0.2983E+01  0.4566E+02
     14.972  0.3342E+01  0.4614E+02
     15.116  0.2934E+01  0.4656E+02
     15.260  0.2828E+01  0.4697E+02
     15.404  0.2260E+01  0.4729E+02
     15.548  0.2232E+01  0.4761E+02
     15.692  0.1593E+01  0.4784E+02
     15.836  0.1595E+01  0.4807E+02
     15.980  0.1382E+01  0.4827E+02
     16.124  0.1808E+01  0.4853E+02
     16.268  0.1639E+01  0.4877E+02
     16.412  0.1638E+01  0.4900E+02
     16.556  0.1530E+01  0.4922E+02
     16.700  0.1244E+01  0.4940E+02
     16.844  0.1585E+01  0.4963E+02
     16.988  0.1546E+01  0.4985E+02
     17.132  0.1516E+01  0.5007E+02
     17.276  0.1365E+01  0.5027E+02
     17.420  0.1470E+01  0.5048E+02
     17.564  0.1220E+01  0.5066E+02
     17.708  0.1232E+01  0.5083E+02
     17.852  0.1017E+01  0.5098E+02
     17.996  0.1562E+01  0.5121E+02
     18.140  0.1662E+01  0.5144E+02
     18.283  0.1901E+01  0.5172E+02
     18.427  0.1871E+01  0.5199E+02
     18.571  0.1548E+01  0.5221E+02
     18.715  0.1907E+01  0.5248E+02
     18.859  0.1780E+01  0.5274E+02
     19.003  0.1487E+01  0.5296E+02
     19.147  0.1006E+01  0.5310E+02
     19.291  0.1095E+01  0.5326E+02
     19.435  0.1045E+01  0.5341E+02
     19.579  0.8664E+00  0.5353E+02
     19.723  0.9983E+00  0.5368E+02
     19.867  0.1047E+01  0.5383E+02
     20.011  0.9189E+00  0.5396E+02
     20.155  0.1133E+01  0.5412E+02
     20.299  0.1203E+01  0.5430E+02
     20.443  0.1320E+01  0.5449E+02
     20.587  0.1286E+01  0.5467E+02
     20.731  0.1176E+01  0.5484E+02
     20.875  0.1196E+01  0.5501E+02
     21.019  0.1187E+01  0.5518E+02
     21.163  0.7644E+00  0.5529E+02
     21.307  0.8259E+00  0.5541E+02
     21.451  0.8432E+00  0.5553E+02
     21.595  0.8325E+00  0.5565E+02
     21.739  0.8609E+00  0.5578E+02
     21.883  0.8180E+00  0.5590E+02
     22.027  0.6031E+00  0.5598E+02
     22.171  0.7592E+00  0.5609E+02
     22.315  0.1155E+01  0.5626E+02
     22.459  0.1054E+01  0.5641E+02
     22.603  0.1031E+01  0.5656E+02
     22.747  0.8331E+00  0.5668E+02
     22.891  0.1358E+01  0.5687E+02
     23.035  0.1465E+01  0.5708E+02
     23.179  0.1695E+01  0.5733E+02
     23.323  0.1391E+01  0.5753E+02
     23.466  0.1501E+01  0.5774E+02
     23.610  0.1855E+01  0.5801E+02
     23.754  0.1661E+01  0.5825E+02
     23.898  0.1502E+01  0.5847E+02
     24.042  0.1562E+01  0.5869E+02
     24.186  0.1757E+01  0.5895E+02
     24.330  0.1916E+01  0.5922E+02
     24.474  0.2116E+01  0.5953E+02
     24.618  0.1669E+01  0.5977E+02
     24.762  0.1565E+01  0.5999E+02
     24.906  0.1132E+01  0.6015E+02
     25.050  0.1204E+01  0.6033E+02
     25.194  0.1039E+01  0.6048E+02
     25.338  0.7139E+00  0.6058E+02
     25.482  0.1104E+01  0.6074E+02
     25.626  0.1635E+01  0.6097E+02
     25.770  0.1800E+01  0.6123E+02
     25.914  0.1991E+01  0.6152E+02
     26.058  0.1709E+01  0.6177E+02
     26.202  0.1925E+01  0.6204E+02
     26.346  0.1568E+01  0.6227E+02
     26.490  0.1573E+01  0.6250E+02
     26.634  0.1213E+01  0.6267E+02
     26.778  0.1605E+01  0.6290E+02
     26.922  0.1626E+01  0.6314E+02
     27.066  0.2084E+01  0.6344E+02
     27.210  0.1017E+01  0.6358E+02
     27.354  0.5563E+00  0.6366E+02
     27.498  0.3502E+00  0.6371E+02
     27.642  0.1714E+00  0.6374E+02
     27.786  0.1939E+00  0.6377E+02
     27.930  0.2245E+00  0.6380E+02
     28.074  0.3168E+00  0.6384E+02
     28.218  0.2030E+00  0.6387E+02
     28.362  0.3280E+00  0.6392E+02
     28.506  0.3926E+00  0.6398E+02
     28.650  0.1656E+00  0.6400E+02
     28.793  0.1241E-03  0.6400E+02
     28.937  0.1384E-12  0.6400E+02
     29.081  0.0000E+00  0.6400E+02
     29.225  0.0000E+00  0.6400E+02
     29.369  0.0000E+00  0.6400E+02
     29.513  0.0000E+00  0.6400E+02
     29.657  0.0000E+00  0.6400E+02
     29.801  0.0000E+00  0.6400E+02
     29.945  0.0000E+00  0.6400E+02
     30.089  0.0000E+00  0.6400E+02
     30.233  0.0000E+00  0.6400E+02
     30.377  0.0000E+00  0.6400E+02
     30.521  0.0000E+00  0.6400E+02
