  301  301  140    2
  0.1147954E+02  0.1598461E-08  0.1598461E-08  0.1561551E-08  0.5000000E-15
  1.000000000000000E-004
  CAR 
 unknown system                          
   2713      1   1780
 
  0.0000000E+00  0.0000000E+00  0.0000000E+00  0.1000000E+01
      1        -10.726341      -10.726341   1.000000   1.000000
      2        -10.479223      -10.479223   1.000000   1.000000
      3        -10.404213      -10.404213   1.000000   1.000000
      4        -10.380814      -10.380814   1.000000   1.000000
      5        -10.380227      -10.380227   1.000000   1.000000
      6        -10.345533      -10.345533   1.000000   1.000000
      7        -10.301680      -10.301680   1.000000   1.000000
      8        -10.301513      -10.301513   1.000000   1.000000
      9        -10.272193      -10.272193   1.000000   1.000000
     10        -10.187854      -10.187854   1.000000   1.000000
     11        -10.187647      -10.187647   1.000000   1.000000
     12        -10.177614      -10.177614   1.000000   1.000000
     13        -10.159883      -10.159883   1.000000   1.000000
     14        -10.142770      -10.142770   1.000000   1.000000
     15        -10.142598      -10.142598   1.000000   1.000000
     16        -10.102918      -10.102918   1.000000   1.000000
     17        -10.102352      -10.102352   1.000000   1.000000
     18        -10.067902      -10.067902   1.000000   1.000000
     19        -10.067784      -10.067784   1.000000   1.000000
     20        -10.057760      -10.057760   1.000000   1.000000
     21        -10.049100      -10.049100   1.000000   1.000000
     22        -10.048642      -10.048642   1.000000   1.000000
     23        -10.044706      -10.044706   1.000000   1.000000
     24        -10.020315      -10.020315   1.000000   1.000000
     25         -9.998581       -9.998581   1.000000   1.000000
     26         -9.993107       -9.993107   1.000000   1.000000
     27         -9.992172       -9.992172   1.000000   1.000000
     28         -9.971556       -9.971556   1.000000   1.000000
     29         -9.971160       -9.971160   1.000000   1.000000
     30         -9.962141       -9.962141   1.000000   1.000000
     31         -9.900316       -9.900316   1.000000   1.000000
     32         -9.899203       -9.899203   1.000000   1.000000
     33         -9.890045       -9.890045   1.000000   1.000000
     34         -9.889822       -9.889822   1.000000   1.000000
     35         -9.865929       -9.865929   1.000000   1.000000
     36         -9.860491       -9.860491   1.000000   1.000000
     37         -9.859834       -9.859834   1.000000   1.000000
     38         -9.841205       -9.841205   1.000000   1.000000
     39         -9.840857       -9.840857   1.000000   1.000000
     40         -9.829040       -9.829040   1.000000   1.000000
     41         -9.828823       -9.828823   1.000000   1.000000
     42         -9.824779       -9.824779   1.000000   1.000000
     43         -9.817521       -9.817521   1.000000   1.000000
     44         -9.802048       -9.802048   1.000000   1.000000
     45         -9.801868       -9.801868   1.000000   1.000000
     46         -9.787479       -9.787479   1.000000   1.000000
     47         -9.781502       -9.781502   1.000000   1.000000
     48         -9.773914       -9.773914   1.000000   1.000000
     49         -9.773749       -9.773749   1.000000   1.000000
     50         -9.772688       -9.772688   1.000000   1.000000
     51         -9.764096       -9.764096   1.000000   1.000000
     52         -9.762242       -9.762242   1.000000   1.000000
     53         -9.761943       -9.761943   1.000000   1.000000
     54         -9.756637       -9.756637   1.000000   1.000000
     55         -9.756312       -9.756312   1.000000   1.000000
     56         -9.756163       -9.756163   1.000000   1.000000
     57         -9.755428       -9.755428   1.000000   1.000000
     58         -9.747162       -9.747162   1.000000   1.000000
     59         -9.747081       -9.747081   1.000000   1.000000
     60         -9.739875       -9.739875   1.000000   1.000000
     61         -9.736197       -9.736197   1.000000   1.000000
     62         -9.736016       -9.736016   1.000000   1.000000
     63         -9.730454       -9.730454   1.000000   1.000000
     64         -9.730249       -9.730249   1.000000   1.000000
     65         -9.724341       -9.724341   1.000000   1.000000
     66         -9.721273       -9.721273   1.000000   1.000000
     67         -9.721240       -9.721240   1.000000   1.000000
     68         -9.719394       -9.719394   1.000000   1.000000
     69         -9.719167       -9.719167   1.000000   1.000000
     70         -9.711247       -9.711247   1.000000   1.000000
     71         -9.702202       -9.702202   1.000000   1.000000
     72         -9.701922       -9.701922   1.000000   1.000000
     73         -9.698941       -9.698941   1.000000   1.000000
     74         -9.698699       -9.698699   1.000000   1.000000
     75         -9.696579       -9.696579   1.000000   1.000000
     76         -9.695596       -9.695596   1.000000   1.000000
     77         -9.695429       -9.695429   1.000000   1.000000
     78         -9.692026       -9.692026   1.000000   1.000000
     79         -9.688146       -9.688146   1.000000   1.000000
     80         -9.687745       -9.687745   1.000000   1.000000
     81         -9.681188       -9.681188   1.000000   1.000000
     82         -9.678995       -9.678995   1.000000   1.000000
     83         -9.678935       -9.678935   1.000000   1.000000
     84         -9.669339       -9.669339   1.000000   1.000000
     85         -9.666755       -9.666755   1.000000   1.000000
     86         -9.666524       -9.666524   1.000000   1.000000
     87         -9.661710       -9.661710   1.000000   1.000000
     88         -9.661622       -9.661622   1.000000   1.000000
     89         -9.646092       -9.646092   1.000000   1.000000
     90         -9.645940       -9.645940   1.000000   1.000000
     91         -9.644338       -9.644338   1.000000   1.000000
     92         -9.644209       -9.644209   1.000000   1.000000
     93         -9.636900       -9.636900   1.000000   1.000000
     94         -9.636420       -9.636420   1.000000   1.000000
     95         -9.635567       -9.635567   1.000000   1.000000
     96         -9.630364       -9.630364   1.000000   1.000000
     97         -9.630291       -9.630291   1.000000   1.000000
     98         -9.627820       -9.627820   1.000000   1.000000
     99         -9.626188       -9.626188   1.000000   1.000000
    100         -9.623549       -9.623549   1.000000   1.000000
    101         -9.621539       -9.621539   1.000000   1.000000
    102         -9.621218       -9.621218   1.000000   1.000000
    103         -9.613135       -9.613135   1.000000   1.000000
    104         -9.610996       -9.610996   1.000000   1.000000
    105         -9.610701       -9.610701   1.000000   1.000000
    106         -9.609461       -9.609461   1.000000   1.000000
    107         -9.609261       -9.609261   1.000000   1.000000
    108         -9.605131       -9.605131   1.000000   1.000000
    109         -9.604939       -9.604939   1.000000   1.000000
    110         -9.601657       -9.601657   1.000000   1.000000
    111         -9.601225       -9.601225   1.000000   1.000000
    112         -9.600757       -9.600757   1.000000   1.000000
    113         -9.599045       -9.599045   1.000000   1.000000
    114         -9.593140       -9.593140   1.000000   1.000000
    115         -9.592483       -9.592483   1.000000   1.000000
    116         -9.592322       -9.592322   1.000000   1.000000
    117         -9.589060       -9.589060   1.000000   1.000000
    118         -9.588835       -9.588835   1.000000   1.000000
    119         -9.583724       -9.583724   1.000000   1.000000
    120         -9.583270       -9.583270   1.000000   1.000000
    121         -9.581370       -9.581370   1.000000   1.000000
    122         -9.580951       -9.580951   1.000000   1.000000
    123         -9.579925       -9.579925   1.000000   1.000000
    124         -9.578346       -9.578346   1.000000   1.000000
    125         -9.578134       -9.578134   1.000000   1.000000
    126         -9.574977       -9.574977   1.000000   1.000000
    127         -9.574801       -9.574801   1.000000   1.000000
    128         -9.572983       -9.572983   1.000000   1.000000
    129         -9.571914       -9.571914   1.000000   1.000000
    130         -9.567526       -9.567526   1.000000   1.000000
    131         -9.567463       -9.567463   1.000000   1.000000
    132         -9.563898       -9.563898   1.000000   1.000000
    133         -9.559820       -9.559820   1.000000   1.000000
    134         -9.558354       -9.558354   1.000000   1.000000
    135         -9.558035       -9.558035   1.000000   1.000000
    136         -9.553835       -9.553835   1.000000   1.000000
    137         -9.553479       -9.553479   1.000000   1.000000
    138         -9.549421       -9.549421   1.000000   1.000000
    139         -9.549178       -9.549178   1.000000   1.000000
    140         -9.549053       -9.549053   1.000000   1.000000
    141         -9.548974       -9.548974   1.000000   1.000000
    142         -9.548751       -9.548751   1.000000   1.000000
    143         -9.541074       -9.541074   1.000000   1.000000
    144         -9.540223       -9.540223   1.000000   1.000000
    145         -9.540102       -9.540102   1.000000   1.000000
    146         -9.538703       -9.538703   1.000000   1.000000
    147         -9.537821       -9.537821   1.000000   1.000000
    148         -9.536168       -9.536168   1.000000   1.000000
    149         -9.535813       -9.535813   1.000000   1.000000
    150         -9.528916       -9.528916   1.000000   1.000000
    151         -9.060018       -9.060018   1.000000   1.000000
    152         -9.059754       -9.059754   1.000000   1.000000
    153         -8.818134       -8.818134   1.000000   1.000000
    154         -8.691707       -8.691707   1.000000   1.000000
    155         -8.691297       -8.691297   1.000000   1.000000
    156         -8.684590       -8.684590   1.000000   1.000000
    157         -8.645643       -8.645643   1.000000   1.000000
    158         -8.597602       -8.597602   1.000000   1.000000
    159         -8.597544       -8.597544   1.000000   1.000000
    160         -8.551917       -8.551917   1.000000   1.000000
    161         -8.551548       -8.551548   1.000000   1.000000
    162         -8.524593       -8.524593   1.000000   1.000000
    163         -8.523844       -8.523844   1.000000   1.000000
    164         -8.506430       -8.506430   1.000000   1.000000
    165         -8.505562       -8.505562   1.000000   1.000000
    166         -8.483213       -8.483213   1.000000   1.000000
    167         -8.482985       -8.482985   1.000000   1.000000
    168         -8.480077       -8.480077   1.000000   1.000000
    169         -8.449285       -8.449285   1.000000   1.000000
    170         -8.445762       -8.445762   1.000000   1.000000
    171         -8.445431       -8.445431   1.000000   1.000000
    172         -8.431793       -8.431793   1.000000   1.000000
    173         -8.430962       -8.430962   1.000000   1.000000
    174         -8.407534       -8.407534   1.000000   1.000000
    175         -8.397094       -8.397094   1.000000   1.000000
    176         -8.385021       -8.385021   1.000000   1.000000
    177         -8.384813       -8.384813   1.000000   1.000000
    178         -8.351016       -8.351016   1.000000   1.000000
    179         -8.330788       -8.330788   1.000000   1.000000
    180         -8.330539       -8.330539   1.000000   1.000000
    181         -8.311650       -8.311650   1.000000   1.000000
    182         -8.307152       -8.307152   1.000000   1.000000
    183         -8.307015       -8.307015   1.000000   1.000000
    184         -8.248547       -8.248547   1.000000   1.000000
    185         -8.248391       -8.248391   1.000000   1.000000
    186         -8.186280       -8.186280   1.000000   1.000000
    187         -8.183982       -8.183982   1.000000   1.000000
    188         -8.183817       -8.183817   1.000000   1.000000
    189         -8.171359       -8.171359   1.000000   1.000000
    190         -8.171101       -8.171101   1.000000   1.000000
    191         -8.169670       -8.169670   1.000000   1.000000
    192         -8.156118       -8.156118   1.000000   1.000000
    193         -8.152762       -8.152762   1.000000   1.000000
    194         -8.152583       -8.152583   1.000000   1.000000
    195         -8.146361       -8.146361   1.000000   1.000000
    196         -8.146242       -8.146242   1.000000   1.000000
    197         -8.144305       -8.144305   1.000000   1.000000
    198         -8.144065       -8.144065   1.000000   1.000000
    199         -8.139447       -8.139447   1.000000   1.000000
    200         -8.135675       -8.135675   1.000000   1.000000
    201         -8.130899       -8.130899   1.000000   1.000000
    202         -8.126440       -8.126440   1.000000   1.000000
    203         -8.125764       -8.125764   1.000000   1.000000
    204         -8.125636       -8.125636   1.000000   1.000000
    205         -8.124349       -8.124349   1.000000   1.000000
    206         -8.124120       -8.124120   1.000000   1.000000
    207         -8.113777       -8.113777   1.000000   1.000000
    208         -8.113647       -8.113647   1.000000   1.000000
    209         -8.112337       -8.112337   1.000000   1.000000
    210         -8.112188       -8.112188   1.000000   1.000000
    211         -8.111182       -8.111182   1.000000   1.000000
    212         -8.110954       -8.110954   1.000000   1.000000
    213         -8.109340       -8.109340   1.000000   1.000000
    214         -8.107833       -8.107833   1.000000   1.000000
    215         -8.104094       -8.104094   1.000000   1.000000
    216         -8.104019       -8.104019   1.000000   1.000000
    217         -8.102622       -8.102622   1.000000   1.000000
    218         -8.100252       -8.100252   1.000000   1.000000
    219         -8.098274       -8.098274   1.000000   1.000000
    220         -8.098236       -8.098236   1.000000   1.000000
    221         -8.096445       -8.096445   1.000000   1.000000
    222         -8.096347       -8.096347   1.000000   1.000000
    223         -8.095596       -8.095596   1.000000   1.000000
    224         -8.094347       -8.094347   1.000000   1.000000
    225         -8.094286       -8.094286   1.000000   1.000000
    226         -8.094000       -8.094000   1.000000   1.000000
    227         -8.090020       -8.090020   1.000000   1.000000
    228         -8.089976       -8.089976   1.000000   1.000000
    229         -8.089217       -8.089217   1.000000   1.000000
    230         -8.087426       -8.087426   1.000000   1.000000
    231         -8.086742       -8.086742   1.000000   1.000000
    232         -8.086630       -8.086630   1.000000   1.000000
    233         -8.084899       -8.084899   1.000000   1.000000
    234         -8.084634       -8.084634   1.000000   1.000000
    235         -8.084030       -8.084030   1.000000   1.000000
    236         -8.083610       -8.083610   1.000000   1.000000
    237         -8.081492       -8.081492   1.000000   1.000000
    238         -8.081411       -8.081411   1.000000   1.000000
    239         -8.079698       -8.079698   1.000000   1.000000
    240         -8.079555       -8.079555   1.000000   1.000000
    241         -8.079337       -8.079337   1.000000   1.000000
    242         -8.074376       -8.074376   1.000000   1.000000
    243         -8.074328       -8.074328   1.000000   1.000000
    244         -8.073980       -8.073980   1.000000   1.000000
    245         -8.073927       -8.073927   1.000000   1.000000
    246         -8.071781       -8.071781   1.000000   1.000000
    247         -8.071693       -8.071693   1.000000   1.000000
    248         -8.071086       -8.071086   1.000000   1.000000
    249         -8.071033       -8.071033   1.000000   1.000000
    250         -8.069578       -8.069578   1.000000   1.000000
    251         -8.069370       -8.069370   1.000000   1.000000
    252         -8.068887       -8.068887   1.000000   1.000000
    253         -8.068874       -8.068874   1.000000   1.000000
    254         -8.067079       -8.067079   1.000000   1.000000
    255         -8.066956       -8.066956   1.000000   1.000000
    256         -8.064453       -8.064453   1.000000   1.000000
    257         -8.063215       -8.063215   1.000000   1.000000
    258         -8.063159       -8.063159   1.000000   1.000000
    259         -8.062418       -8.062418   1.000000   1.000000
    260         -8.061483       -8.061483   1.000000   1.000000
    261         -8.061380       -8.061380   1.000000   1.000000
    262         -8.060675       -8.060675   1.000000   1.000000
    263         -8.060442       -8.060442   1.000000   1.000000
    264         -8.057611       -8.057611   1.000000   1.000000
    265         -8.057526       -8.057526   1.000000   1.000000
    266         -8.056931       -8.056931   1.000000   1.000000
    267         -8.056894       -8.056894   1.000000   1.000000
    268         -8.056029       -8.056029   1.000000   1.000000
    269         -8.055096       -8.055096   1.000000   1.000000
    270         -8.054665       -8.054665   1.000000   1.000000
    271         -8.053731       -8.053731   1.000000   1.000000
    272         -8.053688       -8.053688   1.000000   1.000000
    273         -8.052203       -8.052203   1.000000   1.000000
    274         -8.052161       -8.052161   1.000000   1.000000
    275         -8.050344       -8.050344   1.000000   1.000000
    276         -8.050336       -8.050336   1.000000   1.000000
    277         -8.049116       -8.049116   1.000000   1.000000
    278         -8.048992       -8.048992   1.000000   1.000000
    279         -8.048481       -8.048481   1.000000   1.000000
    280         -8.047109       -8.047109   1.000000   1.000000
    281         -8.046947       -8.046947   1.000000   1.000000
    282         -8.046594       -8.046594   1.000000   1.000000
    283         -8.046481       -8.046481   1.000000   1.000000
    284         -8.046379       -8.046379   1.000000   1.000000
    285         -8.043288       -8.043288   1.000000   1.000000
    286         -8.043132       -8.043132   1.000000   1.000000
    287         -8.043089       -8.043089   1.000000   1.000000
    288         -8.041116       -8.041116   1.000000   1.000000
    289         -8.041024       -8.041024   1.000000   1.000000
    290         -8.040454       -8.040454   1.000000   1.000000
    291         -8.040335       -8.040335   1.000000   1.000000
    292         -8.039947       -8.039947   1.000000   1.000000
    293         -8.039822       -8.039822   1.000000   1.000000
    294         -8.039618       -8.039618   1.000000   1.000000
    295         -8.039168       -8.039168   1.000000   1.000000
    296         -8.039133       -8.039133   1.000000   1.000000
    297         -8.038663       -8.038663   1.000000   1.000000
    298         -8.036178       -8.036178   1.000000   1.000000
    299         -8.036039       -8.036039   1.000000   1.000000
    300         -8.035832       -8.035832   1.000000   1.000000
    301         -8.035069       -8.035069   1.000000   1.000000
    302         -8.034979       -8.034979   1.000000   1.000000
    303         -8.033807       -8.033807   1.000000   1.000000
    304         -8.033359       -8.033359   1.000000   1.000000
    305         -8.033219       -8.033219   1.000000   1.000000
    306         -8.032841       -8.032841   1.000000   1.000000
    307         -8.031520       -8.031520   1.000000   1.000000
    308         -8.031467       -8.031467   1.000000   1.000000
    309         -8.029493       -8.029493   1.000000   1.000000
    310         -8.029404       -8.029404   1.000000   1.000000
    311         -8.029341       -8.029341   1.000000   1.000000
    312         -8.029289       -8.029289   1.000000   1.000000
    313         -8.028813       -8.028813   1.000000   1.000000
    314         -8.028692       -8.028692   1.000000   1.000000
    315         -8.026653       -8.026653   1.000000   1.000000
    316         -8.026501       -8.026501   1.000000   1.000000
    317         -8.025721       -8.025721   1.000000   1.000000
    318         -8.024053       -8.024053   1.000000   1.000000
    319         -8.023868       -8.023868   1.000000   1.000000
    320         -8.023301       -8.023301   1.000000   1.000000
    321         -8.023251       -8.023251   1.000000   1.000000
    322         -8.023222       -8.023222   1.000000   1.000000
    323         -8.022351       -8.022351   1.000000   1.000000
    324         -8.022116       -8.022116   1.000000   1.000000
    325         -8.022063       -8.022063   1.000000   1.000000
    326         -8.020072       -8.020072   1.000000   1.000000
    327         -8.019585       -8.019585   1.000000   1.000000
    328         -8.019536       -8.019536   1.000000   1.000000
    329         -8.019425       -8.019425   1.000000   1.000000
    330         -8.018703       -8.018703   1.000000   1.000000
    331         -8.018644       -8.018644   1.000000   1.000000
    332         -8.017701       -8.017701   1.000000   1.000000
    333         -8.017664       -8.017664   1.000000   1.000000
    334         -8.014061       -8.014061   1.000000   1.000000
    335         -8.013970       -8.013970   1.000000   1.000000
    336         -8.013891       -8.013891   1.000000   1.000000
    337         -8.013372       -8.013372   1.000000   1.000000
    338         -8.012201       -8.012201   1.000000   1.000000
    339         -8.011879       -8.011879   1.000000   1.000000
    340         -8.011820       -8.011820   1.000000   1.000000
    341         -8.011209       -8.011209   1.000000   1.000000
    342         -8.010919       -8.010919   1.000000   1.000000
    343         -8.010898       -8.010898   1.000000   1.000000
    344         -8.009684       -8.009684   1.000000   1.000000
    345         -8.009263       -8.009263   1.000000   1.000000
    346         -8.008387       -8.008387   1.000000   1.000000
    347         -8.008278       -8.008278   1.000000   1.000000
    348         -8.007679       -8.007679   1.000000   1.000000
    349         -8.007344       -8.007344   1.000000   1.000000
    350         -8.006288       -8.006288   1.000000   1.000000
    351         -8.005687       -8.005687   1.000000   1.000000
    352         -8.005671       -8.005671   1.000000   1.000000
    353         -8.005231       -8.005231   1.000000   1.000000
    354         -8.005179       -8.005179   1.000000   1.000000
    355         -8.003448       -8.003448   1.000000   1.000000
    356         -8.003248       -8.003248   1.000000   1.000000
    357         -8.003232       -8.003232   1.000000   1.000000
    358         -8.001882       -8.001882   1.000000   1.000000
    359         -8.001857       -8.001857   1.000000   1.000000
    360         -8.001432       -8.001432   1.000000   1.000000
    361         -8.000961       -8.000961   1.000000   1.000000
    362         -8.000883       -8.000883   1.000000   1.000000
    363         -8.000525       -8.000525   1.000000   1.000000
    364         -8.000164       -8.000164   1.000000   1.000000
    365         -8.000133       -8.000133   1.000000   1.000000
    366         -7.998797       -7.998797   1.000000   1.000000
    367         -7.998752       -7.998752   1.000000   1.000000
    368         -7.996705       -7.996705   1.000000   1.000000
    369         -7.996675       -7.996675   1.000000   1.000000
    370         -7.996620       -7.996620   1.000000   1.000000
    371         -7.996184       -7.996184   1.000000   1.000000
    372         -7.995081       -7.995081   1.000000   1.000000
    373         -7.994587       -7.994587   1.000000   1.000000
    374         -7.994548       -7.994548   1.000000   1.000000
    375         -7.994423       -7.994423   1.000000   1.000000
    376         -7.992355       -7.992355   1.000000   1.000000
    377         -7.990893       -7.990893   1.000000   1.000000
    378         -7.990812       -7.990812   1.000000   1.000000
    379         -7.989612       -7.989612   1.000000   1.000000
    380         -7.989016       -7.989016   1.000000   1.000000
    381         -7.988363       -7.988363   1.000000   1.000000
    382         -7.988262       -7.988262   1.000000   1.000000
    383         -7.985358       -7.985358   1.000000   1.000000
    384         -7.985192       -7.985192   1.000000   1.000000
    385         -7.985152       -7.985152   1.000000   1.000000
    386         -7.983734       -7.983734   1.000000   1.000000
    387         -7.983685       -7.983685   1.000000   1.000000
    388         -7.983015       -7.983015   1.000000   1.000000
    389         -7.982168       -7.982168   1.000000   1.000000
    390         -7.982102       -7.982102   1.000000   1.000000
    391         -7.981175       -7.981175   1.000000   1.000000
    392         -7.981132       -7.981132   1.000000   1.000000
    393         -7.981053       -7.981053   1.000000   1.000000
    394         -7.981024       -7.981024   1.000000   1.000000
    395         -7.979975       -7.979975   1.000000   1.000000
    396         -7.979939       -7.979939   1.000000   1.000000
    397         -7.978247       -7.978247   1.000000   1.000000
    398         -7.978226       -7.978226   1.000000   1.000000
    399         -7.976427       -7.976427   1.000000   1.000000
    400         -7.976313       -7.976313   1.000000   1.000000
    401         -7.976007       -7.976007   1.000000   1.000000
    402         -7.975019       -7.975019   1.000000   1.000000
    403         -7.974869       -7.974869   1.000000   1.000000
    404         -7.974856       -7.974856   1.000000   1.000000
    405         -7.974111       -7.974111   1.000000   1.000000
    406         -7.974098       -7.974098   1.000000   1.000000
    407         -7.972800       -7.972800   1.000000   1.000000
    408         -7.972372       -7.972372   1.000000   1.000000
    409         -7.972315       -7.972315   1.000000   1.000000
    410         -7.970900       -7.970900   1.000000   1.000000
    411         -7.970540       -7.970540   1.000000   1.000000
    412         -7.968918       -7.968918   1.000000   1.000000
    413         -7.968820       -7.968820   1.000000   1.000000
    414         -7.967298       -7.967298   1.000000   1.000000
    415         -7.967277       -7.967277   1.000000   1.000000
    416         -7.967198       -7.967198   1.000000   1.000000
    417         -7.965586       -7.965586   1.000000   1.000000
    418         -7.965526       -7.965526   1.000000   1.000000
    419         -7.964627       -7.964627   1.000000   1.000000
    420         -7.963936       -7.963936   1.000000   1.000000
    421         -7.963902       -7.963902   1.000000   1.000000
    422         -7.963418       -7.963418   1.000000   1.000000
    423         -7.961815       -7.961815   1.000000   1.000000
    424         -7.961770       -7.961770   1.000000   1.000000
    425         -7.960648       -7.960648   1.000000   1.000000
    426         -7.959671       -7.959671   1.000000   1.000000
    427         -7.958906       -7.958906   1.000000   1.000000
    428         -7.958869       -7.958869   1.000000   1.000000
    429         -7.955702       -7.955702   1.000000   1.000000
    430         -7.954864       -7.954864   1.000000   1.000000
    431         -7.954747       -7.954747   1.000000   1.000000
    432         -7.953765       -7.953765   1.000000   1.000000
    433         -7.953547       -7.953547   1.000000   1.000000
    434         -7.953499       -7.953499   1.000000   1.000000
    435         -7.953130       -7.953130   1.000000   1.000000
    436         -7.952996       -7.952996   1.000000   1.000000
    437         -7.952036       -7.952036   1.000000   1.000000
    438         -7.949725       -7.949725   1.000000   1.000000
    439         -7.949579       -7.949579   1.000000   1.000000
    440         -7.949166       -7.949166   1.000000   1.000000
    441         -7.948938       -7.948938   1.000000   1.000000
    442         -7.944406       -7.944406   1.000000   1.000000
    443         -7.944358       -7.944358   1.000000   1.000000
    444         -7.942879       -7.942879   1.000000   1.000000
    445         -7.942843       -7.942843   1.000000   1.000000
    446         -7.942081       -7.942081   1.000000   1.000000
    447         -7.941828       -7.941828   1.000000   1.000000
    448         -7.941455       -7.941455   1.000000   1.000000
    449         -7.941420       -7.941420   1.000000   1.000000
    450         -7.939498       -7.939498   1.000000   1.000000
    451         -7.939424       -7.939424   1.000000   1.000000
    452         -7.938574       -7.938574   1.000000   1.000000
    453         -7.937921       -7.937921   1.000000   1.000000
    454         -7.936320       -7.936320   1.000000   1.000000
    455         -7.936169       -7.936169   1.000000   1.000000
    456         -7.935661       -7.935661   1.000000   1.000000
    457         -7.934162       -7.934162   1.000000   1.000000
    458         -7.933972       -7.933972   1.000000   1.000000
    459         -7.933892       -7.933892   1.000000   1.000000
    460         -7.933020       -7.933020   1.000000   1.000000
    461         -7.932930       -7.932930   1.000000   1.000000
    462         -7.932279       -7.932279   1.000000   1.000000
    463         -7.932245       -7.932245   1.000000   1.000000
    464         -7.930261       -7.930261   1.000000   1.000000