unknown system                          
           1
    15.984609    0.000000    0.000000
    -7.992305   13.843078    0.000000
     0.000000    0.000000   15.615508
   Ga   N 
   151   150
Direct configuration=     1
   0.00000000  0.00000000  0.06547619
   0.06666667  0.13333333  0.33304574
   0.06666667  0.13333333  0.66637908
   0.06622811  0.13465412  0.00385289
   0.06666667  0.33333333  0.33304574
   0.06666667  0.33333333  0.66637908
   0.06666667  0.33333333  0.99971241
   0.06666667  0.53333333  0.33304574
   0.06666667  0.53333333  0.66637908
   0.06666667  0.53333333  0.99971241
   0.06666667  0.73333333  0.33304574
   0.06666667  0.73333333  0.66637908
   0.06666667  0.73333333  0.99971241
   0.06666667  0.93333333  0.33304574
   0.06666667  0.93333333  0.66637908
   0.06386282  0.93081758  0.00091591
   0.26666667  0.13333333  0.33304574
   0.26666667  0.13333333  0.66637908
   0.26666667  0.13333333  0.99971241
   0.26666667  0.33333333  0.33304574
   0.26666667  0.33333333  0.66637908
   0.26666667  0.33333333  0.99971241
   0.26666667  0.53333333  0.33304574
   0.26666667  0.53333333  0.66637908
   0.26666667  0.53333333  0.99971241
   0.26666667  0.73333333  0.33304574
   0.26666667  0.73333333  0.66637908
   0.26666667  0.73333333  0.99971241
   0.26666667  0.93333333  0.33304574
   0.26666667  0.93333333  0.66637908
   0.26666667  0.93333333  0.99971241
   0.46666667  0.13333333  0.33304574
   0.46666667  0.13333333  0.66637908
   0.46666667  0.13333333  0.99971241
   0.46666667  0.33333333  0.33304574
   0.46666667  0.33333333  0.66637908
   0.46666667  0.33333333  0.99971241
   0.46666667  0.53333333  0.33304574
   0.46666667  0.53333333  0.66637908
   0.46666667  0.53333333  0.99971241
   0.46666667  0.73333333  0.33304574
   0.46666667  0.73333333  0.66637908
   0.46666667  0.73333333  0.99971241
   0.46666667  0.93333333  0.33304574
   0.46666667  0.93333333  0.66637908
   0.46666667  0.93333333  0.99971241
   0.66666667  0.13333333  0.33304574
   0.66666667  0.13333333  0.66637908
   0.66666667  0.13333333  0.99971241
   0.66666667  0.33333333  0.33304574
   0.66666667  0.33333333  0.66637908
   0.66666667  0.33333333  0.99971241
   0.66666667  0.53333333  0.33304574
   0.66666667  0.53333333  0.66637908
   0.66666667  0.53333333  0.99971241
   0.66666667  0.73333333  0.33304574
   0.66666667  0.73333333  0.66637908
   0.66666667  0.73333333  0.99971241
   0.66666667  0.93333333  0.33304574
   0.66666667  0.93333333  0.66637908
   0.66666667  0.93333333  0.99971241
   0.86666667  0.13333333  0.33304574
   0.86666667  0.13333333  0.66637908
   0.86666667  0.13333333  0.99971241
   0.86666667  0.33333333  0.33304574
   0.86666667  0.33333333  0.66637908
   0.86666667  0.33333333  0.99971241
   0.86666667  0.53333333  0.33304574
   0.86666667  0.53333333  0.66637908
   0.86666667  0.53333333  0.99971241
   0.86666667  0.73333333  0.33304574
   0.86666667  0.73333333  0.66637908
   0.86666667  0.73333333  0.99971241
   0.86666667  0.93333333  0.33304574
   0.86666667  0.93333333  0.66637908
   0.87643014  0.93338022  0.99961433
   0.13410475  0.07274115  0.16435054
   0.13333333  0.06666667  0.49971241
   0.13333333  0.06666667  0.83304574
   0.13333333  0.26666667  0.16637908
   0.13333333  0.26666667  0.49971241
   0.13333333  0.26666667  0.83304574
   0.13333333  0.46666667  0.16637908
   0.13333333  0.46666667  0.49971241
   0.13333333  0.46666667  0.83304574
   0.13333333  0.66666667  0.16637908
   0.13333333  0.66666667  0.49971241
   0.13333333  0.66666667  0.83304574
   0.13333333  0.86666667  0.16637908
   0.13333333  0.86666667  0.49971241
   0.13333333  0.86666667  0.83304574
   0.33333333  0.06666667  0.16637908
   0.33333333  0.06666667  0.49971241
   0.33333333  0.06666667  0.83304574
   0.33333333  0.26666667  0.16637908
   0.33333333  0.26666667  0.49971241
   0.33333333  0.26666667  0.83304574
   0.33333333  0.46666667  0.16637908
   0.33333333  0.46666667  0.49971241
   0.33333333  0.46666667  0.83304574
   0.33333333  0.66666667  0.16637908
   0.33333333  0.66666667  0.49971241
   0.33333333  0.66666667  0.83304574
   0.33333333  0.86666667  0.16637908
   0.33333333  0.86666667  0.49971241
   0.33333333  0.86666667  0.83304574
   0.53333333  0.06666667  0.16637908
   0.53333333  0.06666667  0.49971241
   0.53333333  0.06666667  0.83304574
   0.53333333  0.26666667  0.16637908
   0.53333333  0.26666667  0.49971241
   0.53333333  0.26666667  0.83304574
   0.53333333  0.46666667  0.16637908
   0.53333333  0.46666667  0.49971241
   0.53333333  0.46666667  0.83304574
   0.53333333  0.66666667  0.16637908
   0.53333333  0.66666667  0.49971241
   0.53333333  0.66666667  0.83304574
   0.53333333  0.86666667  0.16637908
   0.53333333  0.86666667  0.49971241
   0.53333333  0.86666667  0.83304574
   0.73333333  0.06666667  0.16637908
   0.73333333  0.06666667  0.49971241
   0.73333333  0.06666667  0.83304574
   0.73333333  0.26666667  0.16637908
   0.73333333  0.26666667  0.49971241
   0.73333333  0.26666667  0.83304574
   0.73333333  0.46666667  0.16637908
   0.73333333  0.46666667  0.49971241
   0.73333333  0.46666667  0.83304574
   0.73333333  0.66666667  0.16637908
   0.73333333  0.66666667  0.49971241
   0.73333333  0.66666667  0.83304574
   0.73333333  0.86666667  0.16637908
   0.73333333  0.86666667  0.49971241
   0.73333333  0.86666667  0.83304574
   0.93720811  0.07618301  0.16056136
   0.93333333  0.06666667  0.49971241
   0.93333333  0.06666667  0.83304574
   0.93333333  0.26666667  0.16637908
   0.93333333  0.26666667  0.49971241
   0.93333333  0.26666667  0.83304574
   0.93333333  0.46666667  0.16637908
   0.93333333  0.46666667  0.49971241
   0.93333333  0.46666667  0.83304574
   0.93333333  0.66666667  0.16637908
   0.93333333  0.66666667  0.49971241
   0.93333333  0.66666667  0.83304574
   0.93268868  0.86660512  0.16679080
   0.93333333  0.86666667  0.49971241
   0.93333333  0.86666667  0.83304574
   0.06319162  0.12731489  0.12815350
   0.06666667  0.13333333  0.45862092
   0.06666667  0.13333333  0.79195426
   0.06666667  0.33333333  0.12528759
   0.06666667  0.33333333  0.45862092
   0.06666667  0.33333333  0.79195426
   0.06666667  0.53333333  0.12528759
   0.06666667  0.53333333  0.45862092
   0.06666667  0.53333333  0.79195426
   0.06666667  0.73333333  0.12528759
   0.06666667  0.73333333  0.45862092
   0.06666667  0.73333333  0.79195426
   0.06683953  0.93202024  0.11849666
   0.06666667  0.93333333  0.45862092
   0.06666667  0.93333333  0.79195426
   0.26666667  0.13333333  0.12528759
   0.26666667  0.13333333  0.45862092
   0.26666667  0.13333333  0.79195426
   0.26666667  0.33333333  0.12528759
   0.26666667  0.33333333  0.45862092
   0.26666667  0.33333333  0.79195426
   0.26666667  0.53333333  0.12528759
   0.26666667  0.53333333  0.45862092
   0.26666667  0.53333333  0.79195426
   0.26666667  0.73333333  0.12528759
   0.26666667  0.73333333  0.45862092
   0.26666667  0.73333333  0.79195426
   0.26666667  0.93333333  0.12528759
   0.26666667  0.93333333  0.45862092
   0.26666667  0.93333333  0.79195426
   0.46666667  0.13333333  0.12528759
   0.46666667  0.13333333  0.45862092
   0.46666667  0.13333333  0.79195426
   0.46666667  0.33333333  0.12528759
   0.46666667  0.33333333  0.45862092
   0.46666667  0.33333333  0.79195426
   0.46666667  0.53333333  0.12528759
   0.46666667  0.53333333  0.45862092
   0.46666667  0.53333333  0.79195426
   0.46666667  0.73333333  0.12528759
   0.46666667  0.73333333  0.45862092
   0.46666667  0.73333333  0.79195426
   0.46666667  0.93333333  0.12528759
   0.46666667  0.93333333  0.45862092
   0.46666667  0.93333333  0.79195426
   0.66666667  0.13333333  0.12528759
   0.66666667  0.13333333  0.45862092
   0.66666667  0.13333333  0.79195426
   0.66666667  0.33333333  0.12528759
   0.66666667  0.33333333  0.45862092
   0.66666667  0.33333333  0.79195426
   0.66666667  0.53333333  0.12528759
   0.66666667  0.53333333  0.45862092
   0.66666667  0.53333333  0.79195426
   0.66666667  0.73333333  0.12528759
   0.66666667  0.73333333  0.45862092
   0.66666667  0.73333333  0.79195426
   0.66666667  0.93333333  0.12528759
   0.66666667  0.93333333  0.45862092
   0.66666667  0.93333333  0.79195426
   0.86666667  0.13333333  0.12528759
   0.86666667  0.13333333  0.45862092
   0.86666667  0.13333333  0.79195426
   0.86666667  0.33333333  0.12528759
   0.86666667  0.33333333  0.45862092
   0.86666667  0.33333333  0.79195426
   0.86666667  0.53333333  0.12528759
   0.86666667  0.53333333  0.45862092
   0.86666667  0.53333333  0.79195426
   0.86666667  0.73333333  0.12528759
   0.86666667  0.73333333  0.45862092
   0.86666667  0.73333333  0.79195426
   0.86330116  0.93780794  0.11872773
   0.86666667  0.93333333  0.45862092
   0.86666667  0.93333333  0.79195426
   0.13333333  0.06666667  0.29195426
   0.13333333  0.06666667  0.62528759
   0.13181580  0.06573711  0.95625880
   0.13333333  0.26666667  0.29195426
   0.13333333  0.26666667  0.62528759
   0.13333333  0.26666667  0.95862092
   0.13333333  0.46666667  0.29195426
   0.13333333  0.46666667  0.62528759
   0.13333333  0.46666667  0.95862092
   0.13333333  0.66666667  0.29195426
   0.13333333  0.66666667  0.62528759
   0.13333333  0.66666667  0.95862092
   0.13333333  0.86666667  0.29195426
   0.13333333  0.86666667  0.62528759
   0.13333333  0.86666667  0.95862092
   0.33333333  0.06666667  0.29195426
   0.33333333  0.06666667  0.62528759
   0.33333333  0.06666667  0.95862092
   0.33333333  0.26666667  0.29195426
   0.33333333  0.26666667  0.62528759
   0.33333333  0.26666667  0.95862092
   0.33333333  0.46666667  0.29195426
   0.33333333  0.46666667  0.62528759
   0.33333333  0.46666667  0.95862092
   0.33333333  0.66666667  0.29195426
   0.33333333  0.66666667  0.62528759
   0.33333333  0.66666667  0.95862092
   0.33333333  0.86666667  0.29195426
   0.33333333  0.86666667  0.62528759
   0.33333333  0.86666667  0.95862092
   0.53333333  0.06666667  0.29195426
   0.53333333  0.06666667  0.62528759
   0.53333333  0.06666667  0.95862092
   0.53333333  0.26666667  0.29195426
   0.53333333  0.26666667  0.62528759
   0.53333333  0.26666667  0.95862092
   0.53333333  0.46666667  0.29195426
   0.53333333  0.46666667  0.62528759
   0.53333333  0.46666667  0.95862092
   0.53333333  0.66666667  0.29195426
   0.53333333  0.66666667  0.62528759
   0.53333333  0.66666667  0.95862092
   0.53333333  0.86666667  0.29195426
   0.53333333  0.86666667  0.62528759
   0.53333333  0.86666667  0.95862092
   0.73333333  0.06666667  0.29195426
   0.73333333  0.06666667  0.62528759
   0.73333333  0.06666667  0.95862092
   0.73333333  0.26666667  0.29195426
   0.73333333  0.26666667  0.62528759
   0.73333333  0.26666667  0.95862092
   0.73333333  0.46666667  0.29195426
   0.73333333  0.46666667  0.62528759
   0.73333333  0.46666667  0.95862092
   0.73333333  0.66666667  0.29195426
   0.73333333  0.66666667  0.62528759
   0.73333333  0.66666667  0.95862092
   0.73333333  0.86666667  0.29195426
   0.73333333  0.86666667  0.62528759
   0.73333333  0.86666667  0.95862092
   0.93333333  0.06666667  0.29195426
   0.93333333  0.06666667  0.62528759
   0.93379634  0.06794280  0.95904199
   0.93333333  0.26666667  0.29195426
   0.93333333  0.26666667  0.62528759
   0.93333333  0.26666667  0.95862092
   0.93333333  0.46666667  0.29195426
   0.93333333  0.46666667  0.62528759
   0.93333333  0.46666667  0.95862092
   0.93333333  0.66666667  0.29195426
   0.93333333  0.66666667  0.62528759
   0.93333333  0.66666667  0.95862092
   0.93333333  0.86666667  0.29195426
   0.93333333  0.86666667  0.62528759
   0.93177081  0.86152708  0.96598704
Direct configuration=     2
   0.00619069  0.00235861  0.08106493
   0.06622779  0.13335509  0.33408261
   0.06669835  0.13344119  0.66619620
   0.07543684  0.15120052 -0.01132889
   0.06649798  0.33371962  0.33346335
   0.06666235  0.33340232  0.66620695
   0.06650952  0.33419012  0.99914860
   0.06657444  0.53333364  0.33324651
   0.06664682  0.53332725  0.66631047
   0.06657486  0.53337176  0.99959444
   0.06652111  0.73280461  0.33334359
   0.06668026  0.73322466  0.66627710
   0.06662969  0.73273175  0.99940550
   0.06718588  0.93336292  0.33383612
   0.06665457  0.93327962  0.66595243
   0.07566427  0.92367699 -0.01496840
   0.26744853  0.13362439  0.33348852
   0.26686123  0.13342866  0.66627533
   0.26729031  0.13338397  0.99820696
   0.26721805  0.33377252  0.33345656
   0.26673616  0.33341370  0.66620656
   0.26760492  0.33412111  0.99920204
   0.26676169  0.53350651  0.33324305
   0.26670019  0.53339121  0.66630949
   0.26680720  0.53358025  0.99959950
   0.26673875  0.73329449  0.33321437
   0.26670438  0.73332431  0.66632741
   0.26674839  0.73329563  0.99963466
   0.26717959  0.93345136  0.33334227
   0.26680543  0.93335126  0.66626820
   0.26709825  0.93335837  0.99942479
   0.46694645  0.13346881  0.33325301
   0.46674998  0.13337237  0.66631825
   0.46698318  0.13344950  0.99956872
   0.46701018  0.33349116  0.33326689
   0.46675221  0.33336440  0.66630660
   0.46707261  0.33355021  0.99959214
   0.46677660  0.53337748  0.33323529
   0.46669751  0.53335374  0.66632668
   0.46684145  0.53347743  0.99957625
   0.46661085  0.73332456  0.33320071
   0.46665002  0.73333339  0.66634781
   0.46669740  0.73335906  0.99961855
   0.46672924  0.93337761  0.33321424
   0.46669668  0.93335262  0.66633647
   0.46675634  0.93334005  0.99963280
   0.66656647  0.13344191  0.33324070
   0.66663696  0.13335812  0.66632871
   0.66654603  0.13338868  0.99953135
   0.66668365  0.33335084  0.33320206
   0.66666654  0.33332604  0.66633355
   0.66669851  0.33336858  0.99965397
   0.66658905  0.53311639  0.33323359
   0.66661922  0.53324097  0.66632567
   0.66662135  0.53320665  0.99959221
   0.66632509  0.73294243  0.33330062
   0.66652432  0.73320799  0.66636336
   0.66668004  0.73365522  0.99924757
   0.66635458  0.93342195  0.33326928
   0.66654015  0.93336159  0.66634907
   0.66698062  0.93312894  0.99943305
   0.86639370  0.13335907  0.33346896
   0.86654935  0.13340997  0.66623657
   0.86506156  0.13370864  0.99821818
   0.86647964  0.33345978  0.33326116
   0.86660511  0.33334699  0.66630140
   0.86646889  0.33351139  0.99957676
   0.86650416  0.53308708  0.33324059
   0.86659969  0.53322131  0.66631266
   0.86653636  0.53312638  0.99959066
   0.86604592  0.73214530  0.33347021
   0.86657645  0.73318831  0.66609312
   0.86352331  0.72728544  0.00024286
   0.86626102  0.93382028  0.33351792
   0.86663534  0.93331184  0.66586729
   0.84576582  0.92225645  0.98234104
   0.14552124  0.07129367  0.17391191
   0.13346110  0.06680022  0.49993362
   0.13369940  0.06716274  0.83121564
   0.13569602  0.27119165  0.16827708
   0.13341801  0.26683623  0.49989261
   0.13326496  0.26653069  0.83221060
   0.13385256  0.46756651  0.16673431
   0.13341013  0.46680067  0.49980248
   0.13341875  0.46685274  0.83283925
   0.13365983  0.66655762  0.16658000
   0.13342573  0.66661451  0.49979682
   0.13342435  0.66662054  0.83291819
   0.13514878  0.86513268  0.16743320
   0.13347230  0.86653994  0.49986130
   0.13358002  0.86648600  0.83270612
   0.33396528  0.06624937  0.16689053
   0.33350476  0.06667560  0.49983600
   0.33347682  0.06672144  0.83276629
   0.33465917  0.26779896  0.16686805
   0.33349054  0.26681205  0.49984071
   0.33348093  0.26671418  0.83270637
   0.33373427  0.46754587  0.16671656
   0.33341149  0.46681432  0.49980436
   0.33347067  0.46687297  0.83284931
   0.33344433  0.66679731  0.16650091
   0.33336344  0.66669211  0.49978743
   0.33339128  0.66671523  0.83295960
   0.33359654  0.86641248  0.16655921
   0.33341785  0.86659681  0.49979955
   0.33343114  0.86660091  0.83291885
   0.53326588  0.06647218  0.16655162
   0.53333607  0.06664146  0.49979048
   0.53334458  0.06664221  0.83293946
   0.53357025  0.26676648  0.16652569
   0.53338862  0.26668118  0.49978926
   0.53340148  0.26668285  0.83293099
   0.53340965  0.46678433  0.16652863
   0.53333130  0.46668822  0.49979071
   0.53334724  0.46670488  0.83294236
   0.53300982  0.66663145  0.16656120
   0.53321493  0.66662965  0.49980141
   0.53330388  0.66669983  0.83298941
   0.53309933  0.86654185  0.16648492
   0.53321614  0.86659863  0.49979849
   0.53328680  0.86660809  0.83298783
   0.73193691  0.06589513  0.16691152
   0.73322793  0.06668807  0.49982455
   0.73317630  0.06660924  0.83286415
   0.73317602  0.26674025  0.16652713
   0.73329410  0.26666462  0.49978610
   0.73326919  0.26665605  0.83294142
   0.73323258  0.46652719  0.16649079
   0.73329826  0.46661000  0.49978343
   0.73328127  0.46659748  0.83296845
   0.73254057  0.66599178  0.16666513
   0.73313585  0.66651000  0.49980905
   0.73297933  0.66646448  0.83294568
   0.72996915  0.86544774  0.16706544
   0.73309930  0.86655598  0.49982734
   0.73274035  0.86639027  0.83350301
   0.92572028  0.07237613  0.17244534
   0.93325797  0.06676568  0.49982881
   0.93348530  0.06740303  0.83216071
   0.93307511  0.26806733  0.16693724
   0.93327372  0.26673087  0.49982500
   0.93323659  0.26671050  0.83273159
   0.93335770  0.46674264  0.16654440
   0.93334247  0.46666611  0.49978626
   0.93333741  0.46667369  0.83293848
   0.93337591  0.66601213  0.16673339
   0.93333522  0.66649719  0.49980383
   0.93336454  0.66641590  0.83289731
   0.92782113  0.85892179  0.17192230
   0.93322034  0.86655366  0.49995912
   0.93306782  0.86584430  0.83280715
   0.06920444  0.13839901  0.12873486
   0.06670546  0.13324580  0.45826910
   0.06655284  0.13320392  0.79230029
   0.06638010  0.33159344  0.12508149
   0.06668827  0.33318557  0.45835390
   0.06672042  0.33317151  0.79233408
   0.06662917  0.53313512  0.12525683
   0.06667331  0.53332960  0.45849700
   0.06667157  0.53331832  0.79208771
   0.06650829  0.73400936  0.12523813
   0.06666889  0.73351555  0.45841297
   0.06663126  0.73350129  0.79214187
   0.06834601  0.93276359  0.12871107
   0.06655492  0.93338742  0.45809460
   0.06617052  0.93318229  0.79288626
   0.26478619  0.13303422  0.12481750
   0.26639167  0.13319707  0.45829053
   0.26656974  0.13327685  0.79204167
   0.26522508  0.33166020  0.12509868
   0.26649591  0.33316500  0.45835454
   0.26643532  0.33315326  0.79233567
   0.26644091  0.53292764  0.12526179
   0.26661846  0.53325016  0.45849205
   0.26660155  0.53322867  0.79209301
   0.26652779  0.73338915  0.12527633
   0.26661831  0.73335509  0.45851226
   0.26660888  0.73334854  0.79206079
   0.26590844  0.93358724  0.12523815
   0.26647290  0.93332925  0.45839282
   0.26646241  0.93334518  0.79217081
   0.46619752  0.13328388  0.12526200
   0.46654676  0.13328926  0.45848588
   0.46655032  0.13328594  0.79209847
   0.46615761  0.33300537  0.12526965
   0.46653725  0.33326469  0.45847258
   0.46653246  0.33327478  0.79211336
   0.46648544  0.53310478  0.12527191
   0.46663941  0.53330616  0.45850132
   0.46661215  0.53327585  0.79206835
   0.46675695  0.73333869  0.12529445
   0.46670374  0.73334319  0.45851954
   0.46667570  0.73332822  0.79203351
   0.46657700  0.93339414  0.12528529
   0.46664706  0.93333711  0.45851421
   0.46663107  0.93333988  0.79205208
   0.66712589  0.13334626  0.12527161
   0.66671153  0.13329861  0.45849161
   0.66672198  0.13331709  0.79207861
   0.66665458  0.33330900  0.12527766
   0.66666419  0.33333729  0.45852325
   0.66666752  0.33333876  0.79205244
   0.66686028  0.53358992  0.12528608
   0.66672526  0.53343472  0.45850415
   0.66675242  0.53344018  0.79205695
   0.66753352  0.73391391  0.12537442
   0.66683050  0.73347683  0.45844974
   0.66684282  0.73337732  0.79193387
   0.66713539  0.93362071  0.12539889
   0.66682419  0.93333022  0.45842400
   0.66684237  0.93343049  0.79198540
   0.86666070  0.13523173  0.12403794
   0.86677384  0.13326745  0.45842147
   0.86675701  0.13324917  0.79209582
   0.86687037  0.33304835  0.12527126
   0.86673483  0.33329379  0.45847406
   0.86675215  0.33328958  0.79211335
   0.86677699  0.53367703  0.12527281
   0.86672564  0.53345107  0.45850252
   0.86672774  0.53347557  0.79206959
   0.86730123  0.73502614  0.12563484
   0.86686255  0.73368112  0.45825872
   0.86692253  0.73381120  0.79243369
   0.86377296  0.93624150  0.12702829
   0.86685471  0.93333745  0.45820230
   0.86723972  0.93338472  0.79308384
   0.13269612  0.06649184  0.28946636
   0.13321495  0.06654619  0.62533953
   0.13528349  0.06775959  0.95764912
   0.13304984  0.26596945  0.29110549
   0.13328024  0.26655346  0.62530042
   0.13267568  0.26532588  0.96036931
   0.13323179  0.46637597  0.29172280
   0.13329202  0.46658202  0.62530132
   0.13324159  0.46631544  0.95882921
   0.13325084  0.66678500  0.29181027
   0.13328353  0.66670360  0.62528574
   0.13326270  0.66676175  0.95876197
   0.13282323  0.86710132  0.29122188
   0.13322973  0.86676096  0.62533852
   0.13257368  0.86713756  0.95912345
   0.33295886  0.06665797  0.29163088
   0.33321382  0.06663277  0.62525776
   0.33294216  0.06663626  0.95900890
   0.33287584  0.26633008  0.29157309
   0.33321913  0.26659695  0.62527437
   0.33277225  0.26631663  0.95900949
   0.33313498  0.46636778  0.29173407
   0.33327673  0.46657151  0.62529791
   0.33302499  0.46627108  0.95882225
   0.33328389  0.66661168  0.29186187
   0.33330758  0.66664405  0.62528140
   0.33324902  0.66658593  0.95871253
   0.33315566  0.86673393  0.29182134
   0.33326851  0.86669309  0.62528231
   0.33312156  0.86673058  0.95874961
   0.53330759  0.06667274  0.29183501
   0.53332454  0.06667147  0.62528034
   0.53329779  0.06669267  0.95874287
   0.53318734  0.26660593  0.29184074
   0.53328855  0.26665217  0.62528464
   0.53317183  0.26660091  0.95873216
   0.53327982  0.46663872  0.29183751
   0.53332954  0.46666060  0.62528254
   0.53323409  0.46657555  0.95873633
   0.53347435  0.66672890  0.29184036
   0.53339367  0.66668813  0.62526076
   0.53327840  0.66654222  0.95876370
   0.53348681  0.86671368  0.29187221
   0.53339011  0.86668690  0.62526230
   0.53336072  0.86671613  0.95871973
   0.73366408  0.06674134  0.29162426
   0.73342532  0.06665739  0.62526027
   0.73367588  0.06686348  0.95902315
   0.73341654  0.26662763  0.29184174
   0.73336671  0.26666499  0.62528475
   0.73342925  0.26664669  0.95873342
   0.73339488  0.46677062  0.29186484
   0.73336618  0.46671760  0.62528394
   0.73339021  0.46673994  0.95871022
   0.73368682  0.66705759  0.29177161
   0.73348753  0.66678431  0.62528380
   0.73358053  0.66679799  0.95886600
   0.73413490  0.86690100  0.29138920
   0.73356388  0.86677311  0.62535779
   0.73649764  0.86782341  0.95919546
   0.93395687  0.06694648  0.28887479
   0.93335432  0.06655315  0.62535464
   0.93258003  0.06959508  0.95707485
   0.93347025  0.26642327  0.29152734
   0.93339351  0.26661946  0.62529982
   0.93356943  0.26642415  0.95904764
   0.93337687  0.46667377  0.29182763
   0.93334478  0.46667835  0.62528962
   0.93337518  0.46662740  0.95874105
   0.93343683  0.66707997  0.29174030
   0.93334017  0.66679578  0.62530719
   0.93343125  0.66691693  0.95888227
   0.93379745  0.86752906  0.29015499
   0.93339085  0.86676015  0.62536034
   0.93268090  0.85942179  0.95739873
Direct configuration=     3
   0.00331469  0.00126287  0.07382288
   0.06643168  0.13334498  0.33360092
   0.06668363  0.13339108  0.66628116
   0.07115874  0.14351358 -0.00427590
   0.06657635  0.33354016  0.33326934
   0.06666436  0.33337027  0.66628692
   0.06658252  0.33379208  0.99941053
   0.06661729  0.53333350  0.33315324
   0.06665604  0.53333008  0.66634234
   0.06661751  0.53335391  0.99964924
   0.06658873  0.73305024  0.33320522
   0.06667394  0.73327515  0.66632448
   0.06664687  0.73301123  0.99954808
   0.06694467  0.93334918  0.33346894
   0.06666019  0.93330457  0.66615064
   0.07018168  0.92699429 -0.00758904
   0.26708530  0.13348917  0.33328282
   0.26677084  0.13338438  0.66632353
   0.26700059  0.13336044  0.99890635
   0.26696189  0.33356848  0.33326571
   0.26670387  0.33337637  0.66628670
   0.26716903  0.33375513  0.99943914
   0.26671755  0.53342606  0.33315139
   0.26668462  0.53336432  0.66634182
   0.26674191  0.53346554  0.99965196
   0.26670526  0.73331254  0.33313603
   0.26668686  0.73332850  0.66635141
   0.26671042  0.73331314  0.99967078
   0.26694130  0.93339653  0.33320451
   0.26674097  0.93334293  0.66631971
   0.26689775  0.93334674  0.99955841
   0.46681647  0.13340587  0.33315672
   0.46671127  0.13335423  0.66634651
   0.46683614  0.13339553  0.99963548
   0.46685059  0.33341784  0.33316415
   0.46671247  0.33334997  0.66634027
   0.46688402  0.33344946  0.99964802
   0.46672553  0.53335697  0.33314723
   0.46668318  0.53334426  0.66635102
   0.46676025  0.53341049  0.99963951
   0.46663678  0.73332864  0.33312872
   0.46665776  0.73333336  0.66636234
   0.46668312  0.73334711  0.99966215
   0.46670017  0.93335704  0.33313596
   0.46668274  0.93334366  0.66635626
   0.46671468  0.93333693  0.99966979
   0.66661302  0.13339147  0.33315013
   0.66665076  0.13334661  0.66635211
   0.66660208  0.13336297  0.99961547
   0.66667576  0.33334270  0.33312944
   0.66666660  0.33332943  0.66635470
   0.66668371  0.33335221  0.99968112
   0.66662511  0.53321717  0.33314633
   0.66664126  0.53328388  0.66635048
   0.66664240  0.53326550  0.99964805
   0.66648378  0.73312403  0.33318221
   0.66659045  0.73326622  0.66637066
   0.66667383  0.73350568  0.99946352
   0.66649956  0.93338078  0.33316543
   0.66659893  0.93334846  0.66636301
   0.66683477  0.93322390  0.99956284
   0.86652051  0.13334712  0.33327235
   0.86660385  0.13337437  0.66630278
   0.86580724  0.13353428  0.99891235
   0.86656652  0.33340104  0.33316109
   0.86663371  0.33334065  0.66633749
   0.86656077  0.33342867  0.99963978
   0.86657966  0.53320148  0.33315007
   0.86663080  0.53327336  0.66634352
   0.86659689  0.53322252  0.99964722
   0.86633430  0.73269723  0.33327301
   0.86661836  0.73325568  0.66622597
   0.86498362  0.73009510 -0.00000357
   0.86644947  0.93359406  0.33329856
   0.86664989  0.93332182  0.66610505
   0.86001151  0.92742421  0.99036568
   0.14021749  0.07196612  0.16946999
   0.13340175  0.06673818  0.49983085
   0.13352934  0.06693228  0.83206585
   0.13459839  0.26908948  0.16739533
   0.13337867  0.26675746  0.49980889
   0.13329672  0.26659386  0.83259858
   0.13361134  0.46714847  0.16656928
   0.13337445  0.46673841  0.49976064
   0.13337907  0.46676630  0.83293518
   0.13350815  0.66660828  0.16648666
   0.13338281  0.66663874  0.49975761
   0.13338207  0.66664197  0.83297745
   0.13430538  0.86584532  0.16694349
   0.13340774  0.86659881  0.49979213
   0.13346542  0.86656993  0.83286390
   0.33367170  0.06644323  0.16665293
   0.33342512  0.06667145  0.49977858
   0.33341016  0.06669599  0.83289611
   0.33404323  0.26727293  0.16664089
   0.33341751  0.26674451  0.49978111
   0.33341236  0.26669211  0.83286403
   0.33354800  0.46713742  0.16655977
   0.33337518  0.46674572  0.49976164
   0.33340687  0.46677713  0.83294057
   0.33339276  0.66673662  0.16644431
   0.33334946  0.66668029  0.49975258
   0.33336436  0.66669267  0.83299962
   0.33347426  0.86653057  0.16647553
   0.33337859  0.86662926  0.49975907
   0.33338570  0.86663146  0.83297780
   0.53329722  0.06656253  0.16647146
   0.53333480  0.06665317  0.49975421
   0.53333935  0.06665357  0.83298884
   0.53346018  0.26672011  0.16645758
   0.53336294  0.26667444  0.49975356
   0.53336982  0.26667533  0.83298430
   0.53337419  0.46672967  0.16645915
   0.53333224  0.46667821  0.49975434
   0.53334078  0.46668713  0.83299039
   0.53316011  0.66664781  0.16647659
   0.53326993  0.66664685  0.49976007
   0.53331756  0.66668442  0.83301558
   0.53320804  0.86659984  0.16643575
   0.53327058  0.86663024  0.49975850
   0.53330842  0.86663530  0.83301474
   0.73258565  0.06625356  0.16666417
   0.73327690  0.06667813  0.49977245
   0.73324925  0.06663592  0.83294851
   0.73324910  0.26670607  0.16645835
   0.73331233  0.26666557  0.49975187
   0.73329899  0.26666098  0.83298988
   0.73327938  0.46659199  0.16643889
   0.73331456  0.46663633  0.49975043
   0.73330546  0.46662962  0.83300436
   0.73290886  0.66630531  0.16653224
   0.73322760  0.66658278  0.49976415
   0.73314379  0.66655841  0.83299217
   0.73153205  0.86601401  0.16674658
   0.73320803  0.86660740  0.49977395
   0.73301583  0.86651867  0.83329058
   0.93105717  0.07414469  0.16692441
   0.93329298  0.06671968  0.49977474
   0.93341470  0.06706094  0.83257187
   0.93319507  0.26741663  0.16667793
   0.93330142  0.26670104  0.49977269
   0.93328153  0.26669014  0.83287753
   0.93334638  0.46670735  0.16646760
   0.93333823  0.46666637  0.49975195
   0.93333552  0.46667043  0.83298831
   0.93335613  0.66631621  0.16656879
   0.93333435  0.66657592  0.49976136
   0.93335005  0.66653240  0.83296627
   0.93008245  0.86249123  0.16953837
   0.93327283  0.86660616  0.49984451
   0.93319117  0.86622634  0.83291800
   0.06641107  0.13324967  0.12846478
   0.06668744  0.13328647  0.45843255
   0.06660572  0.13326404  0.79213953
   0.06651323  0.33240174  0.12517724
   0.06667824  0.33325422  0.45847795
   0.06669545  0.33324669  0.79215762
   0.06664659  0.53322721  0.12527112
   0.06667022  0.53333133  0.45855457
   0.06666929  0.53332530  0.79202571
   0.06658187  0.73369530  0.12526111
   0.06666786  0.73343090  0.45850958
   0.06664771  0.73342326  0.79205471
   0.06764615  0.93241825  0.12396577
   0.06660683  0.93336230  0.45833911
   0.06640102  0.93325246  0.79245328
   0.26565980  0.13317318  0.12503589
   0.26651943  0.13326038  0.45844402
   0.26661477  0.13330309  0.79200106
   0.26589480  0.33243749  0.12518644
   0.26657524  0.33324320  0.45847829
   0.26654280  0.33323692  0.79215847
   0.26654579  0.53311611  0.12527377
   0.26664086  0.53328880  0.45855192
   0.26663180  0.53327729  0.79202855
   0.26659231  0.73336322  0.12528156
   0.26664078  0.73334498  0.45856274
   0.26663573  0.73334147  0.79201130
   0.26626069  0.93346928  0.12526112
   0.26656292  0.93333115  0.45849879