   4   4   1   0
  0.1151780E+02  0.3196922E-09  0.3196922E-09  0.5205169E-09  0.5000000E-15
  1.000000000000000E-004
  CAR 
 unknown system                          
     39.54876399    -13.07901296  301      5.70252494      1.00000000
    -13.079  0.0000E+00  0.0000E+00
    -12.904  0.0000E+00  0.0000E+00
    -12.728  0.0000E+00  0.0000E+00
    -12.553  0.0000E+00  0.0000E+00
    -12.377  0.0000E+00  0.0000E+00
    -12.202  0.0000E+00  0.0000E+00
    -12.026  0.0000E+00  0.0000E+00
    -11.851  0.0000E+00  0.0000E+00
    -11.676  0.0000E+00  0.0000E+00
    -11.500  0.0000E+00  0.0000E+00
    -11.325  0.0000E+00  0.0000E+00
    -11.149  0.2044E-12  0.3586E-13
    -10.974  0.2549E-06  0.4471E-07
    -10.798  0.1271E-02  0.2230E-03
    -10.623  0.8248E-01  0.1469E-01
    -10.448  0.3708E+00  0.7973E-01
    -10.272  0.6808E+00  0.1992E+00
    -10.097  0.1149E+01  0.4007E+00
     -9.921  0.2213E+01  0.7889E+00
     -9.746  0.6373E+01  0.1907E+01
     -9.570  0.1053E+02  0.3755E+01
     -9.395  0.1395E+01  0.4000E+01
     -9.220  0.2235E-02  0.4000E+01
     -9.044  0.1368E-07  0.4000E+01
     -8.869  0.4834E-16  0.4000E+01
     -8.693  0.3439E-12  0.4000E+01
     -8.518  0.1999E-05  0.4000E+01
     -8.343  0.4773E-01  0.4008E+01
     -8.167  0.8083E+01  0.5426E+01
     -7.992  0.3793E+02  0.1208E+02
     -7.816  0.4016E+02  0.1913E+02
     -7.641  0.8006E+01  0.2053E+02
     -7.465  0.1292E+01  0.2076E+02
     -7.290  0.1235E+01  0.2097E+02
     -7.115  0.1499E+01  0.2124E+02
     -6.939  0.1453E+01  0.2149E+02
     -6.764  0.2015E+01  0.2185E+02
     -6.588  0.2433E+01  0.2227E+02
     -6.413  0.2634E+01  0.2273E+02
     -6.237  0.2739E+01  0.2321E+02
     -6.062  0.3084E+01  0.2376E+02
     -5.887  0.1334E+01  0.2399E+02
     -5.711  0.5930E-01  0.2400E+02
     -5.536  0.6028E-04  0.2400E+02
     -5.360  0.3626E-09  0.2400E+02
     -5.185  0.0000E+00  0.2400E+02
     -5.009  0.0000E+00  0.2400E+02
     -4.834  0.0000E+00  0.2400E+02
     -4.659  0.0000E+00  0.2400E+02
     -4.483  0.0000E+00  0.2400E+02
     -4.308  0.0000E+00  0.2400E+02
     -4.132  0.0000E+00  0.2400E+02
     -3.957  0.0000E+00  0.2400E+02
     -3.781  0.0000E+00  0.2400E+02
     -3.606  0.0000E+00  0.2400E+02
     -3.431  0.0000E+00  0.2400E+02
     -3.255  0.0000E+00  0.2400E+02
     -3.080  0.0000E+00  0.2400E+02
     -2.904  0.0000E+00  0.2400E+02
     -2.729  0.0000E+00  0.2400E+02
     -2.553  0.0000E+00  0.2400E+02
     -2.378  0.0000E+00  0.2400E+02
     -2.203  0.6200E-14  0.2400E+02
     -2.027  0.2415E-07  0.2400E+02
     -1.852  0.2727E-03  0.2400E+02
     -1.676  0.2763E-01  0.2400E+02
     -1.501  0.1473E+00  0.2403E+02
     -1.325  0.5622E+00  0.2413E+02
     -1.150  0.1170E+01  0.2433E+02
     -0.975  0.1842E+01  0.2466E+02
     -0.799  0.2394E+01  0.2508E+02
     -0.624  0.2728E+01  0.2556E+02
     -0.448  0.2065E+01  0.2592E+02
     -0.273  0.1348E+01  0.2615E+02
     -0.097  0.1421E+01  0.2640E+02
      0.078  0.1788E+01  0.2672E+02
      0.253  0.9262E+00  0.2688E+02
      0.429  0.8579E+00  0.2703E+02
      0.604  0.9419E+00  0.2720E+02
      0.780  0.1042E+01  0.2738E+02
      0.955  0.1091E+01  0.2757E+02
      1.130  0.1222E+01  0.2778E+02
      1.306  0.1422E+01  0.2803E+02
      1.481  0.1562E+01  0.2831E+02
      1.657  0.1452E+01  0.2856E+02
      1.832  0.1351E+01  0.2880E+02
      2.008  0.1460E+01  0.2906E+02
      2.183  0.2082E+01  0.2942E+02
      2.358  0.1548E+01  0.2969E+02
      2.534  0.1994E+01  0.3004E+02
      2.709  0.1941E+01  0.3038E+02
      2.885  0.2665E+01  0.3085E+02
      3.060  0.2443E+01  0.3128E+02
      3.236  0.2424E+01  0.3170E+02
      3.411  0.2877E+01  0.3221E+02
      3.586  0.3195E+01  0.3277E+02
      3.762  0.3489E+01  0.3338E+02
      3.937  0.3593E+01  0.3401E+02
      4.113  0.2909E+01  0.3452E+02
      4.288  0.2397E+01  0.3494E+02
      4.464  0.1913E+01  0.3528E+02
      4.639  0.1382E+01  0.3552E+02
      4.814  0.1228E+01  0.3574E+02
      4.990  0.8242E+00  0.3588E+02
      5.165  0.5404E+00  0.3598E+02
      5.341  0.1394E+00  0.3600E+02
      5.516  0.2768E-02  0.3600E+02
      5.692  0.7185E-06  0.3600E+02
      5.867  0.7030E-12  0.3600E+02
      6.042  0.0000E+00  0.3600E+02
      6.218  0.0000E+00  0.3600E+02
      6.393  0.0000E+00  0.3600E+02
      6.569  0.0000E+00  0.3600E+02
      6.744  0.4245E-12  0.3600E+02
      6.920  0.3868E-06  0.3600E+02
      7.095  0.1016E-02  0.3600E+02
      7.270  0.1486E-01  0.3600E+02
      7.446  0.3911E-02  0.3600E+02
      7.621  0.4345E-02  0.3600E+02
      7.797  0.8664E-01  0.3602E+02
      7.972  0.4437E-01  0.3603E+02
      8.148  0.8083E-02  0.3603E+02
      8.323  0.9576E-01  0.3605E+02
      8.498  0.1214E+00  0.3607E+02
      8.674  0.1069E+00  0.3609E+02
      8.849  0.1583E+00  0.3611E+02
      9.025  0.2077E+00  0.3615E+02
      9.200  0.8308E-01  0.3616E+02
      9.376  0.4326E+00  0.3624E+02
      9.551  0.9026E+00  0.3640E+02
      9.726  0.8587E+00  0.3655E+02
      9.902  0.1455E+01  0.3680E+02
     10.077  0.1743E+01  0.3711E+02
     10.253  0.1126E+01  0.3731E+02
     10.428  0.1575E+01  0.3758E+02
     10.603  0.2000E+01  0.3793E+02
     10.779  0.1949E+01  0.3828E+02
     10.954  0.2142E+01  0.3865E+02
     11.130  0.1778E+01  0.3896E+02
     11.305  0.1367E+01  0.3920E+02
     11.481  0.1511E+01  0.3947E+02
     11.656  0.1405E+01  0.3972E+02
     11.831  0.1197E+01  0.3993E+02
     12.007  0.7136E+00  0.4005E+02
     12.182  0.9248E+00  0.4021E+02
     12.358  0.1669E+01  0.4051E+02
     12.533  0.1472E+01  0.4076E+02
     12.709  0.1798E+01  0.4108E+02
     12.884  0.2141E+01  0.4146E+02
     13.059  0.2893E+01  0.4196E+02
     13.235  0.3382E+01  0.4256E+02
     13.410  0.3685E+01  0.4320E+02
     13.586  0.2233E+01  0.4359E+02
     13.761  0.9773E+00  0.4377E+02
     13.937  0.5674E+00  0.4387E+02
     14.112  0.8043E+00  0.4401E+02
     14.287  0.1066E+01  0.4419E+02
     14.463  0.1010E+01  0.4437E+02
     14.638  0.1695E+01  0.4467E+02
     14.814  0.2458E+01  0.4510E+02
     14.989  0.2953E+01  0.4562E+02
     15.165  0.3089E+01  0.4616E+02
     15.340  0.3296E+01  0.4674E+02
     15.515  0.2274E+01  0.4714E+02
     15.691  0.2135E+01  0.4751E+02
     15.866  0.1710E+01  0.4781E+02
     16.042  0.1715E+01  0.4811E+02
     16.217  0.1507E+01  0.4838E+02
     16.393  0.1780E+01  0.4869E+02
     16.568  0.1588E+01  0.4897E+02
     16.743  0.1253E+01  0.4919E+02
     16.919  0.1556E+01  0.4946E+02
     17.094  0.1724E+01  0.4976E+02
     17.270  0.1413E+01  0.5001E+02
     17.445  0.1149E+01  0.5021E+02
     17.621  0.1589E+01  0.5049E+02
     17.796  0.1208E+01  0.5070E+02
     17.971  0.1223E+01  0.5092E+02
     18.147  0.9933E+00  0.5109E+02
     18.322  0.1739E+01  0.5140E+02
     18.498  0.2009E+01  0.5175E+02
     18.673  0.1882E+01  0.5208E+02
     18.849  0.1195E+01  0.5229E+02
     19.024  0.2212E+01  0.5268E+02
     19.199  0.1461E+01  0.5293E+02
     19.375  0.1216E+01  0.5315E+02
     19.550  0.6603E+00  0.5326E+02
     19.726  0.1386E+01  0.5350E+02
     19.901  0.1035E+01  0.5369E+02
     20.076  0.1102E+01  0.5388E+02
     20.252  0.7930E+00  0.5402E+02
     20.427  0.7278E+00  0.5415E+02
     20.603  0.1338E+01  0.5438E+02
     20.778  0.1727E+01  0.5468E+02
     20.954  0.1421E+01  0.5493E+02
     21.129  0.9981E+00  0.5511E+02
     21.304  0.6015E+00  0.5521E+02
     21.480  0.5697E+00  0.5531E+02
     21.655  0.1262E+01  0.5554E+02
     21.831  0.1048E+01  0.5572E+02
     22.006  0.9653E+00  0.5589E+02
     22.182  0.4760E+00  0.5597E+02
     22.357  0.5744E+00  0.5607E+02
     22.532  0.8070E+00  0.5621E+02
     22.708  0.9184E+00  0.5638E+02
     22.883  0.1374E+01  0.5662E+02
     23.059  0.1525E+01  0.5688E+02
     23.234  0.1381E+01  0.5713E+02
     23.410  0.1111E+01  0.5732E+02
     23.585  0.1586E+01  0.5760E+02
     23.760  0.1379E+01  0.5784E+02
     23.936  0.1709E+01  0.5814E+02
     24.111  0.1894E+01  0.5847E+02
     24.287  0.1735E+01  0.5878E+02
     24.462  0.1834E+01  0.5910E+02
     24.638  0.1635E+01  0.5939E+02
     24.813  0.1902E+01  0.5972E+02
     24.988  0.1646E+01  0.6001E+02
     25.164  0.1203E+01  0.6022E+02
     25.339  0.1402E+01  0.6047E+02
     25.515  0.9871E+00  0.6064E+02
     25.690  0.5717E+00  0.6074E+02
     25.866  0.1441E+01  0.6099E+02
     26.041  0.2045E+01  0.6135E+02
     26.216  0.2448E+01  0.6178E+02
     26.392  0.2073E+01  0.6214E+02
     26.567  0.1870E+01  0.6247E+02
     26.743  0.1673E+01  0.6277E+02
     26.918  0.1765E+01  0.6308E+02
     27.094  0.1764E+01  0.6338E+02
     27.269  0.2085E+01  0.6375E+02
     27.444  0.2350E+01  0.6416E+02
     27.620  0.1265E+01  0.6438E+02
     27.795  0.8954E+00  0.6454E+02
     27.971  0.1404E+01  0.6479E+02
     28.146  0.7938E+00  0.6493E+02
     28.322  0.5840E+00  0.6503E+02
     28.497  0.1094E+01  0.6522E+02
     28.672  0.1206E+01  0.6543E+02
     28.848  0.1395E+01  0.6568E+02
     29.023  0.1738E+01  0.6598E+02
     29.199  0.2553E+01  0.6643E+02
     29.374  0.2647E+01  0.6689E+02
     29.549  0.3036E+01  0.6743E+02
     29.725  0.3135E+01  0.6798E+02
     29.900  0.2957E+01  0.6850E+02
     30.076  0.2029E+01  0.6885E+02
     30.251  0.1835E+01  0.6917E+02
     30.427  0.1254E+01  0.6939E+02
     30.602  0.1679E+01  0.6969E+02
     30.777  0.2297E+01  0.7009E+02
     30.953  0.2671E+01  0.7056E+02
     31.128  0.2729E+01  0.7104E+02
     31.304  0.2280E+01  0.7144E+02
     31.479  0.2341E+01  0.7185E+02
     31.655  0.3133E+01  0.7240E+02
     31.830  0.1820E+01  0.7272E+02
     32.005  0.1898E+01  0.7305E+02
     32.181  0.2796E+01  0.7354E+02
     32.356  0.1710E+01  0.7384E+02
     32.532  0.1884E+01  0.7417E+02
     32.707  0.1487E+01  0.7443E+02
     32.883  0.1845E+01  0.7476E+02
     33.058  0.1967E+01  0.7510E+02
     33.233  0.2053E+01  0.7546E+02
     33.409  0.3133E+01  0.7601E+02
     33.584  0.4024E+01  0.7672E+02
     33.760  0.2990E+01  0.7724E+02
     33.935  0.3089E+01  0.7778E+02
     34.111  0.2421E+01  0.7821E+02
     34.286  0.1628E+01  0.7849E+02
     34.461  0.1127E+01  0.7869E+02
     34.637  0.1394E+01  0.7894E+02
     34.812  0.9492E+00  0.7910E+02
     34.988  0.8122E+00  0.7925E+02
     35.163  0.2717E+00  0.7929E+02
     35.339  0.1877E+00  0.7933E+02
     35.514  0.6484E+00  0.7944E+02
     35.689  0.9441E+00  0.7961E+02
     35.865  0.4798E+00  0.7969E+02
     36.040  0.4542E+00  0.7977E+02
     36.216  0.6049E+00  0.7988E+02
     36.391  0.2576E+00  0.7992E+02
     36.567  0.6391E-01  0.7993E+02
     36.742  0.1891E+00  0.7996E+02
     36.917  0.6996E-01  0.7998E+02
     37.093  0.6952E-01  0.7999E+02
     37.268  0.5831E-01  0.8000E+02
     37.444  0.2325E-02  0.8000E+02
     37.619  0.6302E-06  0.8000E+02
     37.795  0.4944E-12  0.8000E+02
     37.970  0.0000E+00  0.8000E+02
     38.145  0.0000E+00  0.8000E+02
     38.321  0.0000E+00  0.8000E+02
     38.496  0.0000E+00  0.8000E+02
     38.672  0.0000E+00  0.8000E+02
     38.847  0.0000E+00  0.8000E+02
     39.022  0.0000E+00  0.8000E+02
     39.198  0.0000E+00  0.8000E+02
     39.373  0.0000E+00  0.8000E+02
     39.549  0.0000E+00  0.8000E+02
     39.54876399    -13.07901296  301      5.70252494      1.00000000
    -13.079  0.0000E+00  0.0000E+00  0.0000E+00
    -12.904  0.0000E+00  0.0000E+00  0.0000E+00
    -12.728  0.0000E+00  0.0000E+00  0.0000E+00
    -12.553  0.0000E+00  0.0000E+00  0.0000E+00
    -12.377  0.0000E+00  0.0000E+00  0.0000E+00
    -12.202  0.0000E+00  0.0000E+00  0.0000E+00
    -12.026  0.0000E+00  0.0000E+00  0.0000E+00
    -11.851  0.0000E+00  0.0000E+00  0.0000E+00
    -11.676  0.0000E+00  0.0000E+00  0.0000E+00
    -11.500  0.0000E+00  0.0000E+00  0.0000E+00
    -11.325  0.0000E+00  0.0000E+00  0.0000E+00
    -11.149  0.2283E-13  0.4915E-16  0.1487E-15
    -10.974  0.2842E-07  0.7957E-10  0.2515E-09
    -10.798  0.1400E-03  0.9614E-06  0.3296E-05
    -10.623  0.8842E-02  0.1422E-03  0.5143E-03
    -10.448  0.3707E-01  0.1447E-02  0.5998E-02
    -10.272  0.5968E-01  0.4862E-02  0.2442E-01
    -10.097  0.8223E-01  0.1208E-01  0.7660E-01
     -9.921  0.1111E+00  0.3020E-01  0.2581E+00
     -9.746  0.1569E+00  0.1011E+00  0.1195E+01
     -9.570  0.9861E-01  0.1790E+00  0.2454E+01
     -9.395  0.6275E-02  0.2419E-01  0.3459E+00
     -9.220  0.6903E-05  0.3895E-04  0.5640E-03
     -9.044  0.3592E-10  0.2390E-09  0.3472E-08
     -8.869  0.1466E-18  0.8570E-18  0.1215E-16
     -8.693  0.7330E-16  0.6475E-16  0.1662E-12
     -8.518  0.4786E-09  0.4147E-09  0.9663E-06
     -8.343  0.1486E-04  0.1123E-04  0.2308E-01
     -8.167  0.3546E-02  0.2123E-02  0.3913E+01
     -7.992  0.2387E-01  0.1020E-01  0.1844E+02
     -7.816  0.2453E-01  0.7651E-02  0.1973E+02
     -7.641  0.2378E-01  0.3756E-02  0.3869E+01
     -7.465  0.3145E-01  0.5869E-02  0.4971E+00
     -7.290  0.3527E-01  0.9120E-02  0.4317E+00
     -7.115  0.4378E-01  0.1405E-01  0.4973E+00
     -6.939  0.4102E-01  0.1779E-01  0.4519E+00
     -6.764  0.5269E-01  0.2842E-01  0.6034E+00
     -6.588  0.5427E-01  0.4063E-01  0.7010E+00
     -6.413  0.4611E-01  0.5126E-01  0.7298E+00
     -6.237  0.3157E-01  0.6287E-01  0.7283E+00
     -6.062  0.1771E-01  0.7957E-01  0.7927E+00
     -5.887  0.4023E-02  0.3540E-01  0.3392E+00
     -5.711  0.9005E-04  0.1584E-02  0.1503E-01
     -5.536  0.3648E-07  0.1615E-05  0.1527E-04
     -5.360  0.1557E-12  0.9708E-11  0.9187E-10
     -5.185  0.0000E+00  0.0000E+00  0.0000E+00
     -5.009  0.0000E+00  0.0000E+00  0.0000E+00
     -4.834  0.0000E+00  0.0000E+00  0.0000E+00
     -4.659  0.0000E+00  0.0000E+00  0.0000E+00
     -4.483  0.0000E+00  0.0000E+00  0.0000E+00
     -4.308  0.0000E+00  0.0000E+00  0.0000E+00
     -4.132  0.0000E+00  0.0000E+00  0.0000E+00
     -3.957  0.0000E+00  0.0000E+00  0.0000E+00
     -3.781  0.0000E+00  0.0000E+00  0.0000E+00
     -3.606  0.0000E+00  0.0000E+00  0.0000E+00
     -3.431  0.0000E+00  0.0000E+00  0.0000E+00
     -3.255  0.0000E+00  0.0000E+00  0.0000E+00
     -3.080  0.0000E+00  0.0000E+00  0.0000E+00
     -2.904  0.0000E+00  0.0000E+00  0.0000E+00
     -2.729  0.0000E+00  0.0000E+00  0.0000E+00
     -2.553  0.0000E+00  0.0000E+00  0.0000E+00
     -2.378  0.0000E+00  0.0000E+00  0.0000E+00
     -2.203  0.7465E-15  0.3356E-15  0.2614E-16
     -2.027  0.2908E-08  0.1307E-08  0.1018E-09
     -1.852  0.3286E-04  0.1475E-04  0.1154E-05
     -1.676  0.3347E-02  0.1486E-02  0.1204E-03
     -1.501  0.1917E-01  0.7075E-02  0.9159E-03
     -1.325  0.8404E-01  0.1991E-01  0.5843E-02
     -1.150  0.1828E+00  0.3568E-01  0.1438E-01
     -0.975  0.2888E+00  0.5554E-01  0.2328E-01
     -0.799  0.3918E+00  0.6314E-01  0.3166E-01
     -0.624  0.4497E+00  0.6908E-01  0.3733E-01
     -0.448  0.3362E+00  0.5077E-01  0.3240E-01
     -0.273  0.1962E+00  0.3855E-01  0.2905E-01
     -0.097  0.1865E+00  0.4720E-01  0.3410E-01
      0.078  0.2228E+00  0.6466E-01  0.4290E-01
      0.253  0.1008E+00  0.3942E-01  0.2294E-01
      0.429  0.7971E-01  0.4104E-01  0.2396E-01
      0.604  0.7167E-01  0.5421E-01  0.2498E-01
      0.780  0.7252E-01  0.6513E-01  0.2596E-01
      0.955  0.6465E-01  0.7168E-01  0.3044E-01
      1.130  0.6611E-01  0.9075E-01  0.2747E-01
      1.306  0.6659E-01  0.1143E+00  0.2890E-01
      1.481  0.7130E-01  0.1218E+00  0.3552E-01
      1.657  0.5875E-01  0.1139E+00  0.3511E-01
      1.832  0.4783E-01  0.1063E+00  0.3505E-01
      2.008  0.4758E-01  0.1181E+00  0.3687E-01
      2.183  0.5662E-01  0.1833E+00  0.4457E-01
      2.358  0.3545E-01  0.1350E+00  0.3482E-01
      2.534  0.4210E-01  0.1691E+00  0.4995E-01
      2.709  0.3576E-01  0.1629E+00  0.5015E-01
      2.885  0.3250E-01  0.2388E+00  0.6374E-01
      3.060  0.3460E-01  0.2059E+00  0.6534E-01
      3.236  0.2823E-01  0.1969E+00  0.7106E-01
      3.411  0.2703E-01  0.2315E+00  0.8482E-01
      3.586  0.2682E-01  0.2464E+00  0.1014E+00
      3.762  0.1628E-01  0.2691E+00  0.1093E+00
      3.937  0.1432E-01  0.2668E+00  0.1184E+00
      4.113  0.1232E-01  0.1969E+00  0.1090E+00
      4.288  0.5133E-02  0.1539E+00  0.9647E-01
      4.464  0.3538E-02  0.1118E+00  0.8346E-01
      4.639  0.4122E-02  0.6948E-01  0.6620E-01
      4.814  0.7957E-03  0.5644E-01  0.6246E-01
      4.990  0.2239E-03  0.3130E-01  0.4551E-01
      5.165  0.1826E-03  0.1704E-01  0.3159E-01
      5.341  0.1141E-04  0.3661E-02  0.8588E-02
      5.516  0.5852E-08  0.6495E-04  0.1757E-03
      5.692  0.1587E-13  0.1608E-07  0.4606E-07
      5.867  0.1871E-22  0.1561E-13  0.4514E-13
      6.042  0.0000E+00  0.0000E+00  0.0000E+00
      6.218  0.0000E+00  0.0000E+00  0.0000E+00
      6.393  0.0000E+00  0.0000E+00  0.0000E+00
      6.569  0.0000E+00  0.0000E+00  0.0000E+00
      6.744  0.5250E-13  0.9958E-15  0.9651E-15
      6.920  0.4783E-07  0.9074E-09  0.8794E-09
      7.095  0.1256E-03  0.2383E-05  0.2310E-05
      7.270  0.1837E-02  0.3485E-04  0.3378E-04
      7.446  0.4836E-03  0.9182E-05  0.8895E-05
      7.621  0.4408E-03  0.4463E-04  0.2467E-04
      7.797  0.8781E-02  0.8907E-03  0.4930E-03
      7.972  0.4458E-02  0.4513E-03  0.2576E-03
      8.148  0.7505E-03  0.1070E-03  0.4837E-04
      8.323  0.8512E-02  0.1516E-02  0.5581E-03
      8.498  0.1069E-01  0.2337E-02  0.5906E-03
      8.674  0.9206E-02  0.2561E-02  0.4092E-03
      8.849  0.1302E-01  0.4053E-02  0.6116E-03
      9.025  0.1674E-01  0.5736E-02  0.7644E-03
      9.200  0.6788E-02  0.2662E-02  0.2665E-03
      9.376  0.3470E-01  0.1951E-01  0.4056E-02
      9.551  0.7396E-01  0.4986E-01  0.1085E-01
      9.726  0.6790E-01  0.6104E-01  0.2066E-01
      9.902  0.1231E+00  0.1007E+00  0.2870E-01
     10.077  0.1471E+00  0.1116E+00  0.2932E-01
     10.253  0.8089E-01  0.8108E-01  0.2545E-01
     10.428  0.1120E+00  0.1184E+00  0.4546E-01
     10.603  0.1584E+00  0.1387E+00  0.5780E-01
     10.779  0.1514E+00  0.1371E+00  0.6257E-01
     10.954  0.1471E+00  0.1537E+00  0.7781E-01
     11.130  0.1270E+00  0.1302E+00  0.7020E-01
     11.305  0.1304E+00  0.8994E-01  0.4100E-01
     11.481  0.1432E+00  0.9755E-01  0.4485E-01
     11.656  0.9457E-01  0.8415E-01  0.5345E-01
     11.831  0.7084E-01  0.7149E-01  0.4847E-01
     12.007  0.6676E-01  0.3704E-01  0.2501E-01
     12.182  0.8930E-01  0.4579E-01  0.3063E-01
     12.358  0.1489E+00  0.7949E-01  0.5969E-01
     12.533  0.1345E+00  0.8414E-01  0.5480E-01
     12.709  0.1770E+00  0.1172E+00  0.6851E-01
     12.884  0.2192E+00  0.1340E+00  0.8551E-01
     13.059  0.2945E+00  0.1776E+00  0.1098E+00
     13.235  0.3532E+00  0.1895E+00  0.1236E+00
     13.410  0.3969E+00  0.2199E+00  0.1179E+00
     13.586  0.1915E+00  0.1472E+00  0.7243E-01
     13.761  0.7865E-01  0.6583E-01  0.2668E-01
     13.937  0.2545E-01  0.7016E-01  0.1853E-01
     14.112  0.3324E-01  0.8165E-01  0.2544E-01
     14.287  0.5397E-01  0.8264E-01  0.3083E-01
     14.463  0.4476E-01  0.9143E-01  0.3615E-01
     14.638  0.6208E-01  0.1959E+00  0.6657E-01
     14.814  0.7193E-01  0.2903E+00  0.1126E+00
     14.989  0.7408E-01  0.3789E+00  0.1264E+00
     15.165  0.6754E-01  0.4291E+00  0.1212E+00
     15.340  0.6712E-01  0.5122E+00  0.1246E+00
     15.515  0.4720E-01  0.3235E+00  0.8758E-01
     15.691  0.3241E-01  0.3870E+00  0.8231E-01
     15.866  0.2092E-01  0.3759E+00  0.5966E-01
     16.042  0.1527E-01  0.4021E+00  0.5763E-01
     16.217  0.1230E-01  0.3137E+00  0.4807E-01
     16.393  0.9817E-02  0.3450E+00  0.6240E-01
     16.568  0.8820E-02  0.3181E+00  0.5948E-01
     16.743  0.4757E-02  0.2339E+00  0.4938E-01
     16.919  0.3070E-02  0.2786E+00  0.6245E-01
     17.094  0.3973E-02  0.3246E+00  0.6960E-01
     17.270  0.3327E-02  0.2793E+00  0.5342E-01
     17.445  0.2777E-02  0.2184E+00  0.4658E-01
     17.621  0.3509E-02  0.2789E+00  0.6638E-01
     17.796  0.3050E-02  0.2296E+00  0.4893E-01
     17.971  0.3610E-02  0.2532E+00  0.4840E-01
     18.147  0.3411E-02  0.2014E+00  0.4217E-01
     18.322  0.7763E-02  0.3439E+00  0.7057E-01
     18.498  0.8844E-02  0.4295E+00  0.8205E-01
     18.673  0.7620E-02  0.4097E+00  0.7219E-01
     18.849  0.6551E-02  0.2355E+00  0.5125E-01
     19.024  0.1155E-01  0.4253E+00  0.9612E-01
     19.199  0.8570E-02  0.2664E+00  0.6432E-01
     19.375  0.8162E-02  0.1929E+00  0.5933E-01
     19.550  0.2710E-02  0.1110E+00  0.3575E-01
     19.726  0.6202E-02  0.1744E+00  0.1019E+00
     19.901  0.8258E-02  0.1248E+00  0.6858E-01
     20.076  0.6994E-02  0.1412E+00  0.7113E-01
     20.252  0.3116E-02  0.9914E-01  0.5840E-01
     20.427  0.3155E-02  0.9236E-01  0.6255E-01
     20.603  0.1170E-01  0.1674E+00  0.1123E+00
     20.778  0.1148E-01  0.2063E+00  0.1396E+00
     20.954  0.6957E-02  0.1535E+00  0.1243E+00
     21.129  0.7053E-02  0.1143E+00  0.8959E-01
     21.304  0.8954E-02  0.6281E-01  0.5440E-01
     21.480  0.7933E-02  0.6227E-01  0.4665E-01
     21.655  0.1999E-01  0.1371E+00  0.1036E+00
     21.831  0.1322E-01  0.1154E+00  0.8758E-01
     22.006  0.1932E-01  0.9143E-01  0.7783E-01
     22.182  0.7955E-02  0.4537E-01  0.3984E-01
     22.357  0.1275E-01  0.6394E-01  0.4735E-01
     22.532  0.1120E-01  0.1015E+00  0.7206E-01
     22.708  0.1766E-01  0.6067E-01  0.9703E-01
     22.883  0.3329E-01  0.9924E-01  0.1328E+00
     23.059  0.3601E-01  0.1171E+00  0.1536E+00
     23.234  0.2831E-01  0.1020E+00  0.1381E+00
     23.410  0.2367E-01  0.8848E-01  0.1087E+00
     23.585  0.3673E-01  0.1323E+00  0.1523E+00
     23.760  0.2527E-01  0.1217E+00  0.1322E+00
     23.936  0.3051E-01  0.1693E+00  0.1692E+00
     24.111  0.5578E-01  0.1456E+00  0.1836E+00
     24.287  0.4386E-01  0.1384E+00  0.1682E+00
     24.462  0.4372E-01  0.1668E+00  0.1737E+00
     24.638  0.3801E-01  0.1624E+00  0.1498E+00
     24.813  0.4275E-01  0.1853E+00  0.1739E+00
     24.988  0.2524E-01  0.1832E+00  0.1459E+00
     25.164  0.3125E-01  0.1117E+00  0.1036E+00
     25.339  0.4719E-01  0.1310E+00  0.1123E+00
     25.515  0.1752E-01  0.1064E+00  0.8332E-01
     25.690  0.3851E-02  0.6795E-01  0.4322E-01
     25.866  0.1515E-01  0.1594E+00  0.1098E+00
     26.041  0.3110E-01  0.2443E+00  0.1435E+00
     26.216  0.4055E-01  0.2862E+00  0.1894E+00
     26.392  0.3029E-01  0.2482E+00  0.1510E+00
     26.567  0.2776E-01  0.2271E+00  0.1372E+00
     26.743  0.2066E-01  0.1985E+00  0.1504E+00
     26.918  0.2138E-01  0.2081E+00  0.1508E+00
     27.094  0.1528E-01  0.2199E+00  0.1579E+00
     27.269  0.1640E-01  0.2729E+00  0.1939E+00
     27.444  0.1720E-01  0.2879E+00  0.2379E+00
     27.620  0.1238E-01  0.1401E+00  0.1376E+00
     27.795  0.1232E-01  0.8106E-01  0.8818E-01
     27.971  0.2034E-01  0.1293E+00  0.1515E+00
     28.146  0.8814E-02  0.7248E-01  0.9219E-01
     28.322  0.6855E-02  0.3864E-01  0.7793E-01
     28.497  0.1163E-01  0.9672E-01  0.1234E+00
     28.672  0.1045E-01  0.1236E+00  0.1198E+00
     28.848  0.1169E-01  0.1548E+00  0.1357E+00
     29.023  0.1432E-01  0.2137E+00  0.1545E+00
     29.199  0.2202E-01  0.3164E+00  0.2405E+00
     29.374  0.2330E-01  0.2274E+00  0.3042E+00
     29.549  0.2053E-01  0.3309E+00  0.2454E+00
     29.725  0.2125E-01  0.3456E+00  0.2281E+00
     29.900  0.2245E-01  0.3221E+00  0.2094E+00
     30.076  0.2274E-01  0.1641E+00  0.1566E+00
     30.251  0.1795E-01  0.1188E+00  0.1664E+00
     30.427  0.1016E-01  0.6572E-01  0.1273E+00
     30.602  0.7729E-02  0.7272E-01  0.1510E+00
     30.777  0.1908E-01  0.9714E-01  0.2033E+00
     30.953  0.2766E-01  0.1189E+00  0.2235E+00
     31.128  0.2341E-01  0.1127E+00  0.2268E+00
     31.304  0.1117E-01  0.7710E-01  0.1970E+00
     31.479  0.1272E-01  0.8184E-01  0.1965E+00
     31.655  0.1797E-01  0.1258E+00  0.2435E+00
     31.830  0.1361E-01  0.6544E-01  0.1272E+00
     32.005  0.1277E-01  0.7622E-01  0.1461E+00
     32.181  0.2473E-01  0.1307E+00  0.2302E+00
     32.356  0.2136E-01  0.8330E-01  0.1668E+00
     32.532  0.2526E-01  0.9919E-01  0.1720E+00
     32.707  0.9684E-02  0.8051E-01  0.1211E+00
     32.883  0.1626E-01  0.1082E+00  0.1560E+00
     33.058  0.1403E-01  0.1093E+00  0.2063E+00
     33.233  0.1711E-01  0.1003E+00  0.2031E+00
     33.409  0.2263E-01  0.1512E+00  0.3119E+00
     33.584  0.2506E-01  0.1741E+00  0.4656E+00
     33.760  0.2261E-01  0.1336E+00  0.3096E+00
     33.935  0.2422E-01  0.1539E+00  0.3401E+00
     34.111  0.1910E-01  0.1300E+00  0.2302E+00
     34.286  0.1530E-01  0.9720E-01  0.1604E+00
     34.461  0.8524E-02  0.6713E-01  0.1095E+00
     34.637  0.8156E-02  0.7636E-01  0.1401E+00
     34.812  0.4168E-02  0.4248E-01  0.9989E-01
     34.988  0.6875E-02  0.3685E-01  0.7864E-01
     35.163  0.2532E-02  0.1506E-01  0.2548E-01
     35.339  0.4187E-03  0.3683E-02  0.4194E-01
     35.514  0.3919E-02  0.2546E-01  0.1012E+00
     35.689  0.4208E-02  0.4495E-01  0.1034E+00
     35.865  0.1820E-02  0.1839E-01  0.5524E-01
     36.040  0.1935E-02  0.2502E-01  0.3746E-01
     36.216  0.3830E-02  0.2550E-01  0.7509E-01
     36.391  0.2123E-02  0.1191E-01  0.3275E-01
     36.567  0.3695E-03  0.2606E-02  0.7813E-02
     36.742  0.1070E-02  0.8973E-02  0.1930E-01
     36.917  0.1620E-03  0.1728E-02  0.8951E-02
     37.093  0.4697E-03  0.3136E-02  0.5084E-02
     37.268  0.2086E-03  0.1688E-02  0.6591E-02
     37.444  0.2796E-05  0.3899E-04  0.3293E-03
     37.619  0.6231E-09  0.9874E-08  0.9086E-07
     37.795  0.4843E-15  0.7724E-14  0.7135E-13
     37.970  0.0000E+00  0.0000E+00  0.0000E+00
     38.145  0.0000E+00  0.0000E+00  0.0000E+00
     38.321  0.0000E+00  0.0000E+00  0.0000E+00
     38.496  0.0000E+00  0.0000E+00  0.0000E+00
     38.672  0.0000E+00  0.0000E+00  0.0000E+00
     38.847  0.0000E+00  0.0000E+00  0.0000E+00
     39.022  0.0000E+00  0.0000E+00  0.0000E+00
     39.198  0.0000E+00  0.0000E+00  0.0000E+00
     39.373  0.0000E+00  0.0000E+00  0.0000E+00
     39.549  0.0000E+00  0.0000E+00  0.0000E+00
     39.54876399    -13.07901296  301      5.70252494      1.00000000
    -13.079  0.0000E+00  0.0000E+00  0.0000E+00
    -12.904  0.0000E+00  0.0000E+00  0.0000E+00
    -12.728  0.0000E+00  0.0000E+00  0.0000E+00
    -12.553  0.0000E+00  0.0000E+00  0.0000E+00
    -12.377  0.0000E+00  0.0000E+00  0.0000E+00
    -12.202  0.0000E+00  0.0000E+00  0.0000E+00
    -12.026  0.0000E+00  0.0000E+00  0.0000E+00
    -11.851  0.0000E+00  0.0000E+00  0.0000E+00
    -11.676  0.0000E+00  0.0000E+00  0.0000E+00
    -11.500  0.0000E+00  0.0000E+00  0.0000E+00
    -11.325  0.0000E+00  0.0000E+00  0.0000E+00
    -11.149  0.2283E-13  0.4915E-16  0.1487E-15
    -10.974  0.2842E-07  0.7957E-10  0.2515E-09
    -10.798  0.1400E-03  0.9614E-06  0.3296E-05
    -10.623  0.8842E-02  0.1422E-03  0.5143E-03
    -10.448  0.3707E-01  0.1447E-02  0.5998E-02
    -10.272  0.5968E-01  0.4862E-02  0.2442E-01
    -10.097  0.8223E-01  0.1208E-01  0.7660E-01
     -9.921  0.1111E+00  0.3020E-01  0.2581E+00
     -9.746  0.1569E+00  0.1011E+00  0.1195E+01
     -9.570  0.9861E-01  0.1790E+00  0.2454E+01
     -9.395  0.6275E-02  0.2419E-01  0.3459E+00
     -9.220  0.6903E-05  0.3895E-04  0.5640E-03
     -9.044  0.3592E-10  0.2390E-09  0.3472E-08
     -8.869  0.1466E-18  0.8570E-18  0.1215E-16
     -8.693  0.7330E-16  0.6475E-16  0.1662E-12
     -8.518  0.4786E-09  0.4147E-09  0.9663E-06
     -8.343  0.1486E-04  0.1123E-04  0.2308E-01
     -8.167  0.3546E-02  0.2123E-02  0.3913E+01
     -7.992  0.2387E-01  0.1020E-01  0.1844E+02
     -7.816  0.2453E-01  0.7651E-02  0.1973E+02
     -7.641  0.2378E-01  0.3756E-02  0.3869E+01
     -7.465  0.3145E-01  0.5869E-02  0.4971E+00
     -7.290  0.3527E-01  0.9120E-02  0.4317E+00
     -7.115  0.4378E-01  0.1405E-01  0.4973E+00
     -6.939  0.4102E-01  0.1779E-01  0.4519E+00
     -6.764  0.5269E-01  0.2842E-01  0.6034E+00
     -6.588  0.5427E-01  0.4063E-01  0.7010E+00
     -6.413  0.4611E-01  0.5126E-01  0.7298E+00
     -6.237  0.3157E-01  0.6287E-01  0.7283E+00
     -6.062  0.1771E-01  0.7957E-01  0.7927E+00
     -5.887  0.4023E-02  0.3540E-01  0.3392E+00
     -5.711  0.9005E-04  0.1584E-02  0.1503E-01
     -5.536  0.3648E-07  0.1615E-05  0.1527E-04
     -5.360  0.1557E-12  0.9708E-11  0.9187E-10
     -5.185  0.0000E+00  0.0000E+00  0.0000E+00
     -5.009  0.0000E+00  0.0000E+00  0.0000E+00
     -4.834  0.0000E+00  0.0000E+00  0.0000E+00
     -4.659  0.0000E+00  0.0000E+00  0.0000E+00
     -4.483  0.0000E+00  0.0000E+00  0.0000E+00
     -4.308  0.0000E+00  0.0000E+00  0.0000E+00
     -4.132  0.0000E+00  0.0000E+00  0.0000E+00
     -3.957  0.0000E+00  0.0000E+00  0.0000E+00
     -3.781  0.0000E+00  0.0000E+00  0.0000E+00
     -3.606  0.0000E+00  0.0000E+00  0.0000E+00
     -3.431  0.0000E+00  0.0000E+00  0.0000E+00
     -3.255  0.0000E+00  0.0000E+00  0.0000E+00
     -3.080  0.0000E+00  0.0000E+00  0.0000E+00
     -2.904  0.0000E+00  0.0000E+00  0.0000E+00
     -2.729  0.0000E+00  0.0000E+00  0.0000E+00
     -2.553  0.0000E+00  0.0000E+00  0.0000E+00
     -2.378  0.0000E+00  0.0000E+00  0.0000E+00
     -2.203  0.7465E-15  0.3356E-15  0.2614E-16
     -2.027  0.2908E-08  0.1307E-08  0.1018E-09
     -1.852  0.3286E-04  0.1475E-04  0.1154E-05
     -1.676  0.3347E-02  0.1486E-02  0.1204E-03
     -1.501  0.1917E-01  0.7075E-02  0.9159E-03
     -1.325  0.8404E-01  0.1991E-01  0.5843E-02
     -1.150  0.1828E+00  0.3568E-01  0.1438E-01
     -0.975  0.2888E+00  0.5554E-01  0.2328E-01
     -0.799  0.3918E+00  0.6314E-01  0.3166E-01
     -0.624  0.4497E+00  0.6908E-01  0.3733E-01
     -0.448  0.3362E+00  0.5077E-01  0.3240E-01
     -0.273  0.1962E+00  0.3855E-01  0.2905E-01
     -0.097  0.1865E+00  0.4720E-01  0.3410E-01
      0.078  0.2228E+00  0.6466E-01  0.4290E-01
      0.253  0.1008E+00  0.3942E-01  0.2294E-01
      0.429  0.7971E-01  0.4104E-01  0.2396E-01
      0.604  0.7167E-01  0.5421E-01  0.2498E-01
      0.780  0.7252E-01  0.6513E-01  0.2596E-01
      0.955  0.6465E-01  0.7168E-01  0.3044E-01
      1.130  0.6611E-01  0.9075E-01  0.2747E-01
      1.306  0.6659E-01  0.1143E+00  0.2890E-01
      1.481  0.7130E-01  0.1218E+00  0.3552E-01
      1.657  0.5875E-01  0.1139E+00  0.3511E-01
      1.832  0.4783E-01  0.1063E+00  0.3505E-01
      2.008  0.4758E-01  0.1181E+00  0.3687E-01
      2.183  0.5662E-01  0.1833E+00  0.4457E-01
      2.358  0.3545E-01  0.1350E+00  0.3482E-01
      2.534  0.4210E-01  0.1691E+00  0.4995E-01