    4    4    1    1
  0.1151780E+02  0.3196922E-09  0.3196922E-09  0.5205169E-09  0.5000000E-15
  1.000000000000000E-004
  CAR 
 unknown system                          
     36    388     40
 
  0.0000000E+00  0.0000000E+00  0.6250000E-01  0.1736111E-02
      1        -10.675412   1.000000
      2         -9.794879   1.000000
      3         -8.196800   1.000000
      4         -8.184546   1.000000
      5         -8.184544   1.000000
      6         -8.125817   1.000000
      7         -8.125811   1.000000
      8         -7.936722   1.000000
      9         -7.936722   1.000000
     10         -7.843061   1.000000
     11         -7.843060   1.000000
     12         -6.656719   1.000000
     13         -1.693871   1.000000
     14          4.215837   1.000000
     15          4.216351   1.000000
     16          5.052490   1.000000
     17          5.222977   1.000000
     18          5.223561   1.000000
     19          7.210363   0.000000
     20          9.429734   0.000000
     21         14.363164   0.000000
     22         15.076917   0.000000
     23         15.076934   0.000000
     24         15.793724   0.000000
     25         16.835215   0.000000
     26         16.835365   0.000000
     27         19.834267   0.000000
     28         20.946783   0.000000
     29         20.946832   0.000000
     30         23.186361   0.000000
     31         23.186447   0.000000
     32         23.310244   0.000000
     33         23.504065   0.000000
     34         26.797493   0.000000
     35         29.395272   0.000000
     36         29.395735   0.000000
     37         31.899964   0.000000
     38         33.343566   0.000000
     39         33.344120   0.000000
     40         34.144559   0.000000
 
  0.8333333E-01  0.0000000E+00  0.6250000E-01  0.1041667E-01
      1        -10.608457   1.000000
      2         -9.777130   1.000000
      3         -8.192152   1.000000
      4         -8.174542   1.000000
      5         -8.160425   1.000000
      6         -8.118342   1.000000
      7         -8.112495   1.000000
      8         -7.941961   1.000000
      9         -7.937405   1.000000
     10         -7.854771   1.000000
     11         -7.841592   1.000000
     12         -6.608099   1.000000
     13         -1.598024   1.000000
     14          3.704990   1.000000
     15          4.071827   1.000000
     16          4.517160   1.000000
     17          5.105439   1.000000
     18          5.162195   1.000000
     19          7.748000   0.000000
     20          9.867773   0.000000
     21         14.173557   0.000000
     22         14.584475   0.000000
     23         15.257933   0.000000
     24         15.882109   0.000000
     25         16.502933   0.000000
     26         16.989846   0.000000
     27         19.245912   0.000000
     28         20.559561   0.000000
     29         21.551988   0.000000
     30         22.961990   0.000000
     31         24.005654   0.000000
     32         24.056337   0.000000
     33         24.360091   0.000000
     34         27.450722   0.000000
     35         28.892967   0.000000
     36         29.341238   0.000000
     37         32.279541   0.000000
     38         32.885503   0.000000
     39         33.324458   0.000000
     40         33.661663   0.000000
 
  0.1666667E+00  0.0000000E+00  0.6250000E-01  0.1041667E-01
      1        -10.426503   1.000000
      2         -9.733837   1.000000
      3         -8.169683   1.000000
      4         -8.150445   1.000000
      5         -8.106276   1.000000
      6         -8.076038   1.000000
      7         -8.074409   1.000000
      8         -7.956152   1.000000
      9         -7.935610   1.000000
     10         -7.878841   1.000000
     11         -7.837841   1.000000
     12         -6.471819   1.000000
     13         -1.323003   1.000000
     14          2.546808   1.000000
     15          3.452779   1.000000
     16          3.712682   1.000000
     17          4.895066   1.000000
     18          4.981579   1.000000
     19          8.652349   0.000000
     20         10.708819   0.000000
     21         13.345672   0.000000
     22         14.082501   0.000000
     23         15.578471   0.000000
     24         15.662586   0.000000
     25         16.439186   0.000000
     26         17.356504   0.000000
     27         18.265476   0.000000
     28         20.306615   0.000000
     29         21.831310   0.000000
     30         24.124807   0.000000
     31         25.246921   0.000000
     32         25.677956   0.000000
     33         25.898995   0.000000
     34         27.432151   0.000000
     35         29.266031   0.000000
     36         30.072743   0.000000
     37         31.345237   0.000000
     38         32.701267   0.000000
     39         32.787197   0.000000
     40         33.720087   0.000000
 
  0.2500000E+00  0.0000000E+00  0.6250000E-01  0.1041667E-01
      1        -10.187421   1.000000
      2         -9.685891   1.000000
      3         -8.145851   1.000000
      4         -8.126130   1.000000
      5         -8.065689   1.000000
      6         -8.026593   1.000000
      7         -7.976178   1.000000
      8         -7.951928   1.000000
      9         -7.921716   1.000000
     10         -7.842005   1.000000
     11         -7.832836   1.000000
     12         -6.277732   1.000000
     13         -0.927258   1.000000
     14          1.294898   1.000000
     15          2.323547   1.000000
     16          3.279453   1.000000
     17          4.531234   1.000000
     18          4.725671   1.000000
     19          9.461337   0.000000
     20         11.122802   0.000000
     21         12.577609   0.000000
     22         13.697813   0.000000
     23         15.320371   0.000000
     24         15.914115   0.000000
     25         16.546370   0.000000
     26         17.841961   0.000000
     27         18.020588   0.000000
     28         20.862193   0.000000
     29         21.543382   0.000000
     30         24.481139   0.000000
     31         26.539232   0.000000
     32         27.478189   0.000000
     33         27.687963   0.000000
     34         28.363024   0.000000
     35         29.345717   0.000000
     36         30.682405   0.000000
     37         31.837787   0.000000
     38         32.005859   0.000000
     39         32.766162   0.000000
     40         33.499243   0.000000
 
  0.3333333E+00  0.0000000E+00  0.6250000E-01  0.1041667E-01
      1         -9.972908   1.000000
      2         -9.650983   1.000000
      3         -8.133930   1.000000
      4         -8.113512   1.000000
      5         -8.036577   1.000000
      6         -7.978989   1.000000
      7         -7.977720   1.000000
      8         -7.941300   1.000000
      9         -7.893018   1.000000
     10         -7.826798   1.000000
     11         -7.520185   1.000000
     12         -6.099227   1.000000
     13         -0.694163   1.000000
     14          0.450675   1.000000
     15          1.314120   1.000000
     16          2.888517   1.000000
     17          4.007706   1.000000
     18          4.472323   1.000000
     19          9.997095   0.000000
     20         10.921196   0.000000
     21         11.993099   0.000000
     22         13.586268   0.000000
     23         15.442455   0.000000
     24         15.845100   0.000000
     25         16.767165   0.000000
     26         18.273695   0.000000
     27         18.451436   0.000000
     28         21.540292   0.000000
     29         22.133714   0.000000
     30         23.623711   0.000000
     31         26.819300   0.000000
     32         28.699094   0.000000
     33         29.477280   0.000000
     34         29.575796   0.000000
     35         29.895043   0.000000
     36         31.623406   0.000000
     37         31.679226   0.000000
     38         32.389829   0.000000
     39         32.477555   0.000000
     40         33.616339   0.000000
 
  0.4166667E+00  0.0000000E+00  0.6250000E-01  0.1041667E-01
      1         -9.839922   1.000000
      2         -9.633475   1.000000
      3         -8.134797   1.000000
      4         -8.110756   1.000000
      5         -8.021788   1.000000
      6         -7.983121   1.000000
      7         -7.946638   1.000000
      8         -7.926853   1.000000
      9         -7.863170   1.000000
     10         -7.820455   1.000000
     11         -7.044433   1.000000
     12         -6.073855   1.000000
     13         -1.028499   1.000000
     14          0.180011   1.000000
     15          0.953247   1.000000
     16          2.622618   1.000000
     17          3.419078   1.000000
     18          4.290318   1.000000
     19         10.206859   0.000000
     20         10.645701   0.000000
     21         11.628442   0.000000
     22         13.637637   0.000000
     23         15.522981   0.000000
     24         15.692809   0.000000
     25         17.275886   0.000000
     26         18.412560   0.000000
     27         18.954209   0.000000
     28         21.907942   0.000000
     29         22.977479   0.000000
     30         23.688735   0.000000
     31         26.496128   0.000000
     32         28.676584   0.000000
     33         29.504471   0.000000
     34         29.966708   0.000000
     35         30.181066   0.000000
     36         30.951045   0.000000
     37         31.883378   0.000000
     38         33.507285   0.000000
     39         33.654769   0.000000
     40         35.263188   0.000000
 
  0.5000000E+00  0.0000000E+00  0.6250000E-01  0.5208333E-02
      1         -9.797008   1.000000
      2         -9.628839   1.000000
      3         -8.137185   1.000000
      4         -8.110754   1.000000
      5         -8.015497   1.000000
      6         -7.987811   1.000000
      7         -7.935700   1.000000
      8         -7.917980   1.000000
      9         -7.850523   1.000000
     10         -7.817498   1.000000
     11         -6.714676   1.000000
     12         -6.193850   1.000000
     13         -1.211057   1.000000
     14         -0.079938   1.000000
     15          1.138531   1.000000
     16          2.529449   1.000000
     17          3.103855   1.000000
     18          4.224768   1.000000
     19         10.275808   0.000000
     20         10.486289   0.000000
     21         11.531773   0.000000
     22         13.694718   0.000000
     23         15.542919   0.000000
     24         15.627504   0.000000
     25         17.456072   0.000000
     26         18.500574   0.000000
     27         19.144364   0.000000
     28         22.176407   0.000000
     29         22.723749   0.000000
     30         24.593922   0.000000
     31         26.330745   0.000000
     32         28.549524   0.000000
     33         29.193401   0.000000
     34         29.229795   0.000000
     35         30.124810   0.000000
     36         31.298611   0.000000
     37         31.595022   0.000000
     38         34.150772   0.000000
     39         34.191760   0.000000
     40         36.368160   0.000000
 
  0.8333333E-01  0.8333333E-01  0.6250000E-01  0.1041667E-01
      1        -10.483873   1.000000
      2         -9.746785   1.000000
      3         -8.175986   1.000000
      4         -8.158312   1.000000
      5         -8.119267   1.000000
      6         -8.104981   1.000000
      7         -8.078770   1.000000
      8         -7.950392   1.000000
      9         -7.938123   1.000000
     10         -7.873387   1.000000
     11         -7.838445   1.000000
     12         -6.515483   1.000000
     13         -1.412147   1.000000
     14          2.970546   1.000000
     15          3.491006   1.000000
     16          4.024955   1.000000
     17          4.971976   1.000000
     18          4.984646   1.000000
     19          8.424163   0.000000
     20         10.527267   0.000000
     21         13.831190   0.000000
     22         13.869096   0.000000
     23         15.654123   0.000000
     24         15.914409   0.000000
     25         16.041230   0.000000
     26         17.281039   0.000000
     27         18.843536   0.000000
     28         19.680241   0.000000
     29         22.930843   0.000000
     30         23.375999   0.000000
     31         23.996152   0.000000
     32         25.196426   0.000000
     33         26.055486   0.000000
     34         27.471720   0.000000
     35         29.213333   0.000000
     36         29.504985   0.000000
     37         31.870047   0.000000
     38         32.602251   0.000000
     39         32.835659   0.000000
     40         33.660300   0.000000
 
  0.1666667E+00  0.8333333E-01  0.6250000E-01  0.2083333E-01
      1        -10.272904   1.000000
      2         -9.701851   1.000000
      3         -8.148607   1.000000
      4         -8.138136   1.000000
      5         -8.078897   1.000000
      6         -8.060807   1.000000
      7         -7.981114   1.000000
      8         -7.956529   1.000000
      9         -7.930775   1.000000
     10         -7.891292   1.000000
     11         -7.828356   1.000000
     12         -6.348037   1.000000
     13         -1.071518   1.000000
     14          1.876804   1.000000
     15          2.562337   1.000000
     16          3.446747   1.000000
     17          4.677173   1.000000
     18          4.707302   1.000000
     19          9.271240   0.000000
     20         11.298972   0.000000
     21         12.937519   0.000000
     22         13.495856   0.000000
     23         15.350559   0.000000
     24         15.925366   0.000000
     25         16.145151   0.000000
     26         17.775058   0.000000
     27         18.493288   0.000000
     28         19.652358   0.000000
     29         22.822961   0.000000
     30         24.785084   0.000000
     31         25.221076   0.000000
     32         26.156603   0.000000
     33         27.711070   0.000000
     34         27.871338   0.000000
     35         29.284023   0.000000
     36         30.851321   0.000000
     37         31.258660   0.000000
     38         32.077723   0.000000
     39         32.948275   0.000000
     40         33.778397   0.000000
 
  0.2500000E+00  0.8333333E-01  0.6250000E-01  0.2083333E-01
      1        -10.046966   1.000000
      2         -9.662380   1.000000
      3         -8.130088   1.000000
      4         -8.124112   1.000000
      5         -8.043046   1.000000
      6         -8.009015   1.000000
      7         -7.976349   1.000000
      8         -7.934639   1.000000
      9         -7.905159   1.000000
     10         -7.842473   1.000000
     11         -7.663514   1.000000
     12         -6.152325   1.000000
     13         -0.704481   1.000000
     14          0.825097   1.000000
     15          1.653956   1.000000
     16          2.856851   1.000000
     17          4.256198   1.000000
     18          4.377739   1.000000
     19         10.011397   0.000000
     20         11.436539   0.000000
     21         12.207301   0.000000
     22         13.456202   0.000000
     23         15.072942   0.000000
     24         15.969822   0.000000
     25         16.269665   0.000000
     26         18.229487   0.000000
     27         18.614491   0.000000
     28         20.509234   0.000000
     29         22.668212   0.000000
     30         24.375113   0.000000
     31         26.341849   0.000000
     32         27.825277   0.000000
     33         28.641508   0.000000
     34         29.127456   0.000000
     35         30.078278   0.000000
     36         30.801240   0.000000
     37         31.651137   0.000000
     38         32.311064   0.000000
     39         32.961453   0.000000
     40         33.661287   0.000000
 
  0.3333333E+00  0.8333333E-01  0.6250000E-01  0.2083333E-01
      1         -9.877669   1.000000
      2         -9.638737   1.000000
      3         -8.133047   1.000000
      4         -8.112409   1.000000
      5         -8.018213   1.000000
      6         -7.979506   1.000000
      7         -7.964335   1.000000
      8         -7.935517   1.000000
      9         -7.877462   1.000000
     10         -7.831627   1.000000
     11         -7.243187   1.000000
     12         -6.034377   1.000000
     13         -0.779362   1.000000
     14          0.362256   1.000000
     15          1.006890   1.000000
     16          2.430717   1.000000
     17          3.691227   1.000000
     18          4.115533   1.000000
     19         10.455033   0.000000
     20         11.141658   0.000000
     21         11.700845   0.000000
     22         13.556427   0.000000
     23         15.146575   0.000000
     24         15.780624   0.000000
     25         16.837911   0.000000
     26         18.451457   0.000000
     27         18.950240   0.000000
     28         21.502226   0.000000
     29         22.930111   0.000000
     30         23.912102   0.000000
     31         26.447212   0.000000
     32         28.736994   0.000000
     33         29.046847   0.000000
     34         29.742075   0.000000
     35         30.557460   0.000000
     36         30.979991   0.000000
     37         31.564211   0.000000
     38         32.664346   0.000000
     39         33.578258   0.000000
     40         34.078273   0.000000
 
  0.4166667E+00  0.8333333E-01  0.6250000E-01  0.2083333E-01
      1         -9.793737   1.000000
      2         -9.629979   1.000000
      3         -8.138994   1.000000
      4         -8.108882   1.000000
      5         -8.005824   1.000000
      6         -7.984923   1.000000
      7         -7.942100   1.000000
      8         -7.922362   1.000000
      9         -7.859683   1.000000
     10         -7.825754   1.000000
     11         -6.779325   1.000000
     12         -6.115299   1.000000
     13         -1.096238   1.000000
     14          0.018861   1.000000
     15          1.116343   1.000000
     16          2.249991   1.000000
     17          3.166593   1.000000
     18          3.969254   1.000000
     19         10.626349   0.000000
     20         10.832566   0.000000
     21         11.540383   0.000000
     22         13.641383   0.000000
     23         15.280108   0.000000
     24         15.544001   0.000000
     25         17.502182   0.000000
     26         18.577019   0.000000
     27         18.940426   0.000000
     28         22.360147   0.000000
     29         22.882154   0.000000
     30         24.186336   0.000000
     31         26.177599   0.000000
     32         28.495224   0.000000
     33         29.020918   0.000000
     34         29.790494   0.000000
     35         30.419178   0.000000
     36         30.948069   0.000000
     37         31.646033   0.000000
     38         33.136374   0.000000
     39         34.498231   0.000000
     40         35.427313   0.000000
 
  0.1666667E+00  0.1666667E+00  0.6250000E-01  0.1041667E-01
      1        -10.075023   1.000000
      2         -9.666888   1.000000
      3         -8.137006   1.000000
      4         -8.116265   1.000000
      5         -8.051002   1.000000
      6         -8.028846   1.000000
      7         -7.973728   1.000000
      8         -7.924467   1.000000
      9         -7.903451   1.000000
     10         -7.864891   1.000000
     11         -7.698340   1.000000
     12         -6.172164   1.000000
     13         -0.732493   1.000000
     14          1.259936   1.000000
     15          1.554332   1.000000
     16          2.832138   1.000000
     17          4.199022   1.000000
     18          4.363249   1.000000
     19         10.095155   0.000000
     20         12.043966   0.000000
     21         12.491940   0.000000
     22         12.870707   0.000000
     23         15.174243   0.000000
     24         15.401080   0.000000
     25         16.221063   0.000000
     26         18.399290   0.000000
     27         19.057944   0.000000
     28         19.532399   0.000000
     29         24.120075   0.000000
     30         24.504874   0.000000
     31         25.378870   0.000000
     32         26.952694   0.000000
     33         28.294179   0.000000
     34         29.122243   0.000000
     35         30.177083   0.000000
     36         30.681727   0.000000
     37         31.571923   0.000000
     38         32.215003   0.000000
     39         33.153725   0.000000
     40         34.066917   0.000000
 
  0.2500000E+00  0.1666667E+00  0.6250000E-01  0.2083333E-01
      1         -9.899150   1.000000
      2         -9.642524   1.000000
      3         -8.145910   1.000000
      4         -8.090182   1.000000
      5         -8.018918   1.000000
      6         -7.995508   1.000000
      7         -7.973387   1.000000
      8         -7.933554   1.000000
      9         -7.885643   1.000000
     10         -7.851198   1.000000
     11         -7.337691   1.000000
     12         -6.014457   1.000000
     13         -0.556761   1.000000
     14          0.614340   1.000000
     15          1.061259   1.000000
     16          2.100384   1.000000
     17          3.734119   1.000000
     18          3.884342   1.000000
     19         10.866756   0.000000
     20         11.653809   0.000000
     21         12.223801   0.000000
     22         13.203177   0.000000
     23         14.832227   0.000000
     24         15.631114   0.000000
     25         16.107866   0.000000
     26         18.831734   0.000000
     27         19.112794   0.000000
     28         20.435017   0.000000
     29         24.076675   0.000000
     30         24.765414   0.000000
     31         25.897856   0.000000
     32         27.411257   0.000000
     33         28.469460   0.000000
     34         29.608582   0.000000
     35         30.113137   0.000000
     36         31.345288   0.000000
     37         31.886485   0.000000
     38         32.474310   0.000000
     39         33.245267   0.000000
     40         33.892190   0.000000
 
  0.3333333E+00  0.1666667E+00  0.6250000E-01  0.2083333E-01
      1         -9.786616   1.000000
      2         -9.633107   1.000000
      3         -8.155835   1.000000
      4         -8.079655   1.000000
      5         -7.995313   1.000000
      6         -7.975441   1.000000
      7         -7.960707   1.000000
      8         -7.934123   1.000000
      9         -7.874612   1.000000
     10         -7.844933   1.000000
     11         -6.870995   1.000000
     12         -5.996217   1.000000
     13         -0.777294   1.000000
     14          0.165720   1.000000
     15          1.129152   1.000000
     16          1.672403   1.000000
     17          3.289829   1.000000
     18          3.451720   1.000000
     19         10.966526   0.000000
     20         11.589000   0.000000
     21         11.992371   0.000000
     22         13.487652   0.000000
     23         14.840711   0.000000
     24         15.494115   0.000000
     25         16.898045   0.000000
     26         18.649430   0.000000
     27         19.017768   0.000000
     28         21.665435   0.000000
     29         23.897016   0.000000
     30         24.554914   0.000000
     31         25.871360   0.000000
     32         27.472170   0.000000
     33         29.075397   0.000000
     34         29.796789   0.000000
     35         30.387599   0.000000
     36         31.121794   0.000000
     37         31.810146   0.000000
     38         32.033271   0.000000
     39         34.022863   0.000000
     40         35.630951   0.000000
 
  0.4166667E+00  0.1666667E+00  0.6250000E-01  0.1041667E-01
      1         -9.747823   1.000000
      2         -9.632573   1.000000
      3         -8.159899   1.000000
      4         -8.077665   1.000000
      5         -7.982507   1.000000
      6         -7.982073   1.000000
      7         -7.948837   1.000000
      8         -7.925456   1.000000
      9         -7.874657   1.000000
     10         -7.842291   1.000000
     11         -6.562422   1.000000
     12         -6.104480   1.000000
     13         -0.928551   1.000000
     14          0.014965   1.000000
     15          1.063820   1.000000
     16          1.801920   1.000000
     17          2.945477   1.000000
     18          3.338715   1.000000
     19         10.799475   0.000000
     20         11.829327   0.000000
     21         11.837344   0.000000
     22         13.552012   0.000000
     23         14.924806   0.000000
     24         15.360861   0.000000
     25         17.736349   0.000000
     26         18.236539   0.000000
     27         18.813847   0.000000
     28         22.954702   0.000000
     29         23.094519   0.000000
     30         24.403849   0.000000
     31         25.667301   0.000000
     32         27.274665   0.000000
     33         29.559332   0.000000
     34         30.060204   0.000000
     35         30.676915   0.000000
     36         31.366410   0.000000
     37         31.510746   0.000000
     38         32.490627   0.000000
     39         33.299021   0.000000
     40         34.641498   0.000000
 
  0.2500000E+00  0.2500000E+00  0.6250000E-01  0.1041667E-01
      1         -9.782786   1.000000
      2         -9.634748   1.000000
      3         -8.164711   1.000000
      4         -8.050726   1.000000
      5         -7.997487   1.000000
      6         -7.985798   1.000000
      7         -7.962743   1.000000
      8         -7.939184   1.000000
      9         -7.879366   1.000000
     10         -7.856650   1.000000
     11         -6.906288   1.000000
     12         -5.947155   1.000000
     13         -0.508435   1.000000
     14          0.128034   1.000000
     15          1.285393   1.000000
     16          1.294063   1.000000
     17          3.132731   1.000000
     18          3.387253   1.000000
     19         11.022928   0.000000
     20         11.764005   0.000000
     21         13.003164   0.000000
     22         13.055185   0.000000
     23         14.763835   0.000000
     24         15.372565   0.000000
     25         16.323741   0.000000
     26         18.911558   0.000000
     27         19.011069   0.000000
     28         21.086004   0.000000
     29         24.766868   0.000000
     30         25.171330   0.000000
     31         26.046528   0.000000
     32         26.652008   0.000000
     33         27.800480   0.000000
     34         29.951625   0.000000
     35         30.164968   0.000000
     36         31.620099   0.000000
     37         31.625146   0.000000
     38         32.433298   0.000000
     39         33.705553   0.000000
     40         35.473412   0.000000
 
  0.3333333E+00  0.2500000E+00  0.6250000E-01  0.2083333E-01
      1         -9.714644   1.000000
      2         -9.640536   1.000000
      3         -8.175937   1.000000
      4         -8.032043   1.000000
      5         -7.980548   1.000000
      6         -7.968397   1.000000
      7         -7.960110   1.000000
      8         -7.937651   1.000000
      9         -7.890984   1.000000
     10         -7.858439   1.000000
     11         -6.486409   1.000000
     12         -6.032397   1.000000
     13         -0.547976   1.000000
     14         -0.030773   1.000000
     15          0.614129   1.000000
     16          1.817698   1.000000
     17          2.756430   1.000000
     18          2.884895   1.000000
     19         10.634132   0.000000
     20         12.357434   0.000000
     21         12.931967   0.000000
     22         13.393457   0.000000
     23         14.814025   0.000000
     24         15.188688   0.000000
     25         17.210250   0.000000
     26         18.274703   0.000000
     27         18.656424   0.000000
     28         22.379630   0.000000
     29         23.883857   0.000000
     30         24.924651   0.000000
     31         26.147618   0.000000
     32         26.335611   0.000000
     33         28.876131   0.000000
     34         30.146020   0.000000
     35         30.825355   0.000000
     36         31.291388   0.000000
     37         31.585340   0.000000
     38         32.115987   0.000000
     39         33.280073   0.000000
     40         34.073556   0.000000
 
  0.3333333E+00  0.3333333E+00  0.6250000E-01  0.3472222E-02
      1         -9.666296   1.000000
      2         -9.666294   1.000000
      3         -8.183442   1.000000
      4         -7.991106   1.000000
      5         -7.991101   1.000000
      6         -7.968718   1.000000
      7         -7.946678   1.000000
      8         -7.946678   1.000000
      9         -7.907198   1.000000
     10         -7.864179   1.000000
     11         -6.189462   1.000000
     12         -6.189455   1.000000
     13         -0.134271   1.000000
     14         -0.134263   1.000000
     15          0.029278   1.000000
     16          2.351928   1.000000
     17          2.351932   1.000000
     18          2.502673   1.000000
     19         10.458753   0.000000
     20         12.918055   0.000000
     21         12.918063   0.000000
     22         13.624427   0.000000
     23         14.960495   0.000000
     24         14.960508   0.000000
     25         17.792214   0.000000
     26         17.792226   0.000000
     27         18.179525   0.000000
     28         23.561691   0.000000
     29         23.561698   0.000000
     30         23.727414   0.000000
     31         25.953959   0.000000
     32         27.591769   0.000000
     33         29.262043   0.000000
     34         29.262092   0.000000
     35         31.048011   0.000000
     36         31.388908   0.000000
     37         31.388917   0.000000
     38         31.588389   0.000000
     39         33.589138   0.000000
     40         33.589181   0.000000
 
  0.0000000E+00  0.0000000E+00  0.1875000E+00  0.1736111E-02
      1        -10.587111   1.000000
      2         -9.829856   1.000000
      3         -8.182953   1.000000
      4         -8.182951   1.000000
      5         -8.170363   1.000000
      6         -8.132850   1.000000
      7         -8.132845   1.000000
      8         -7.927101   1.000000
      9         -7.927101   1.000000
     10         -7.847934   1.000000
     11         -7.847933   1.000000