       N       E                     dE             d eps       ncg     rms          rms(c)
DAV:   1     0.276689068846E+03    0.27669E+03   -0.12566E+04 41368   0.143E+03
DAV:   2     0.980604741442E+01   -0.26688E+03   -0.23804E+03 31472   0.392E+02
DAV:   3    -0.272982017971E+02   -0.37104E+02   -0.36489E+02 36280   0.986E+01
DAV:   4    -0.282543460575E+02   -0.95614E+00   -0.95525E+00 35504   0.178E+01
DAV:   5    -0.282660777785E+02   -0.11732E-01   -0.11731E-01 37640   0.196E+00    0.108E+01
DAV:   6    -0.242609442856E+02    0.40051E+01   -0.41252E+00 52352   0.311E+01    0.327E+00
DAV:   7    -0.243391077173E+02   -0.78163E-01   -0.11612E+00 33432   0.588E+00    0.279E+00
DAV:   8    -0.243463157916E+02   -0.72081E-02   -0.14646E-01 44096   0.283E+00    0.179E+00
DAV:   9    -0.243191059735E+02    0.27210E-01   -0.32522E-02 43832   0.227E+00    0.507E-01
DAV:  10    -0.243199459583E+02   -0.83998E-03   -0.83379E-03 35536   0.426E-01    0.339E-01
DAV:  11    -0.243198548661E+02    0.91092E-04   -0.33833E-04 40992   0.328E-01    0.139E-01
DAV:  12    -0.243198423044E+02    0.12562E-04   -0.50488E-05 36304   0.421E-02    0.919E-02
DAV:  13    -0.243198396694E+02    0.26350E-05   -0.23275E-05 34896   0.350E-02
   1 F= -.24319840E+02 E0= -.24319840E+02  d E =-.243198E+02
