 vasp.6.3.1 04May22 (build Jun 07 2022 20:23:04) complex                        
  
 executed on             LinuxIFC date 2024.03.28  16:34:45
 running on   32 total cores
 distrk:  each k-point on    8 cores,    4 groups
 distr:  one band on NCORE=   1 cores,    8 groups


--------------------------------------------------------------------------------------------------------


 INCAR:
   ALGO = Normal
   EDIFF = 1e-05
   ENCUT = 400.0
   IBRION = 2
   ISIF = 0
   ISMEAR = 0
   KPAR = 4
   LASPH = True
   LCHARG = False
   LORBIT = 10
   LREAL = False
   LWAVE = False
   NBANDS = 34
   NELM = 100
   NSW = 1
   PREC = Normal
   SIGMA = 0.1

 POTCAR:    PAW_PBE Ga_d 06Jul2010                
 POTCAR:    PAW_PBE N 08Apr2002                   
 -----------------------------------------------------------------------------
|                                                                             |
|           W    W    AA    RRRRR   N    N  II  N    N   GGGG   !!!           |
|           W    W   A  A   R    R  NN   N  II  NN   N  G    G  !!!           |
|           W    W  A    A  R    R  N N  N  II  N N  N  G       !!!           |
|           W WW W  AAAAAA  RRRRR   N  N N  II  N  N N  G  GGG   !            |
|           WW  WW  A    A  R   R   N   NN  II  N   NN  G    G                |
|           W    W  A    A  R    R  N    N  II  N    N   GGGG   !!!           |
|                                                                             |
|     For optimal performance we recommend to set                             |
|       NCORE = 2 up to number-of-cores-per-socket                            |
|     NCORE specifies how many cores store one orbital (NPAR=cpu/NCORE).      |
|     This setting can greatly improve the performance of VASP for DFT.       |
|     The default, NCORE=1 might be grossly inefficient on modern             |
|     multi-core architectures or massively parallel machines. Do your        |
|     own testing! More info at https://www.vasp.at/wiki/index.php/NCORE      |
|     Unfortunately you need to use the default for GW and RPA                |
|     calculations (for HF NCORE is supported but not extensively tested      |
|     yet).                                                                   |
|                                                                             |
 -----------------------------------------------------------------------------

 POTCAR:    PAW_PBE Ga_d 06Jul2010                
   SHA256 =  a60ddf36e14f00ea098d9e3914b3745f1b7105e68786148f49ae384e44b4226c Ga_d/POTCAR           
   COPYR  = (c) Copyright 06Jul2010 Georg Kresse                                                    
   COPYR  = This file is part of the software VASP. Any use, copying, and all other rights are regul
   COPYR  = If you do not have a valid VASP license, you may not use, copy or distribute this file. 
   VRHFIN =Ga: s2p1                                                                                 
   LEXCH  = PE                                                                                      
   EATOM  =  2148.8298 eV,  157.9345 Ry                                                             
                                                                                                    
   TITEL  = PAW_PBE Ga_d 06Jul2010                                                                  
   LULTRA =        F    use ultrasoft PP ?                                                          
   IUNSCR =        1    unscreen: 0-lin 1-nonlin 2-no                                               
   RPACOR =    1.700    partial core radius                                                         
   POMASS =   69.723; ZVAL   =   13.000    mass and valenz                                          
   RCORE  =    2.300    outmost cutoff radius                                                       
   RWIGS  =    2.300; RWIGS  =    1.217    wigner-seitz radius (au A)                               
   ENMAX  =  282.691; ENMIN  =  212.018 eV                                                          
   ICORE  =        3    local potential                                                             
   LCOR   =        T    correct aug charges                                                         
   LPAW   =        T    paw PP                                                                      
   EAUG   =  490.690                                                                                
   DEXC   =    0.000                                                                                
   RMAX   =    2.341    core radius for proj-oper                                                   
   RAUG   =    1.300    factor for augmentation sphere                                              
   RDEP   =    2.413    radius for radial grids                                                     
   RDEPT  =    1.856    core radius for aug-charge                                                  
                                                                                                    
   Atomic configuration                                                                             
    9 entries                                                                                       
     n  l   j            E        occ.                                                              
     1  0  0.50    -10228.7831   2.0000                                                             
     2  0  0.50     -1262.1604   2.0000                                                             
     2  1  1.50     -1098.6333   6.0000                                                             
     3  0  0.50      -148.1110   2.0000                                                             
     3  1  1.50       -98.8436   6.0000                                                             
     3  2  2.50       -19.1549  10.0000                                                             
     4  0  0.50        -8.9483   2.0000                                                             
     4  1  0.50        -2.5791   1.0000                                                             
     4  3  2.50        -2.7416   0.0000                                                             
   Description                                                                                      
     l       E           TYP  RCUT    TYP  RCUT                                                     
     2    -19.1549037     23  2.300                                                                 
     2     -5.4423304     23  2.300                                                                 
     0     -8.9483111     23  2.300                                                                 
     0     68.0291300     23  2.300                                                                 
     1     -2.5790802     23  2.100                                                                 
     1     81.6349560     23  2.300                                                                 
     3      6.8029130     23  2.300                                                                 
  local pseudopotential read in
  partial core-charges read in
  partial kinetic energy density read in
  atomic valenz-charges read in
  non local Contribution for L=           2  read in
    real space projection operators read in
  non local Contribution for L=           2  read in
    real space projection operators read in
  non local Contribution for L=           0  read in
    real space projection operators read in
  non local Contribution for L=           0  read in
    real space projection operators read in
  non local Contribution for L=           1  read in
    real space projection operators read in
  non local Contribution for L=           1  read in
    real space projection operators read in
    PAW grid and wavefunctions read in
 
   number of l-projection  operators is LMAX  =           6
   number of lm-projection operators is LMMAX =          18
 
 POTCAR:    PAW_PBE N 08Apr2002                   
   SHA256 =  e053789ff3a61a86a1b75d8a110fcc91f86041011e7b0817c7c99e4e8a6349d7 N/POTCAR              
   COPYR  = (c) Copyright 08Apr2002 Georg Kresse                                                    
   COPYR  = This file is part of the software VASP. Any use, copying, and all other rights are regul
   COPYR  = If you do not have a valid VASP license, you may not use, copy or distribute this file. 
   VRHFIN =N: s2p3                                                                                  
   LEXCH  = PE                                                                                      
   EATOM  =   264.5486 eV,   19.4438 Ry                                                             
                                                                                                    
   TITEL  = PAW_PBE N 08Apr2002                                                                     
   LULTRA =        F    use ultrasoft PP ?                                                          
   IUNSCR =        1    unscreen: 0-lin 1-nonlin 2-no                                               
   RPACOR =    1.200    partial core radius                                                         
   POMASS =   14.001; ZVAL   =    5.000    mass and valenz                                          
   RCORE  =    1.500    outmost cutoff radius                                                       
   RWIGS  =    1.400; RWIGS  =    0.741    wigner-seitz radius (au A)                               
   ENMAX  =  400.000; ENMIN  =  300.000 eV                                                          
   ICORE  =        2    local potential                                                             
   LCOR   =        T    correct aug charges                                                         
   LPAW   =        T    paw PP                                                                      
   EAUG   =  627.112                                                                                
   DEXC   =    0.000                                                                                
   RMAX   =    1.529    core radius for proj-oper                                                   
   RAUG   =    1.300    factor for augmentation sphere                                              
   RDEP   =    1.514    radius for radial grids                                                     
   RDEPT  =    1.338    core radius for aug-charge                                                  
                                                                                                    
   Atomic configuration                                                                             
    4 entries                                                                                       
     n  l   j            E        occ.                                                              
     1  0  0.50      -384.7179   2.0000                                                             
     2  0  0.50       -18.5828   2.0000                                                             
     2  1  0.50        -7.0898   3.0000                                                             
     3  2  1.50        -6.8029   0.0000                                                             
   Description                                                                                      
     l       E           TYP  RCUT    TYP  RCUT                                                     
     0    -18.5828119     23  1.200                                                                 
     0    -13.5018863     23  1.200                                                                 
     1     -7.0897853     23  1.500                                                                 
     1      9.5240782     23  1.500                                                                 
     2     -6.8029130      7  1.500                                                                 
  local pseudopotential read in
  partial core-charges read in
  partial kinetic energy density read in
  atomic valenz-charges read in
  non local Contribution for L=           0  read in
    real space projection operators read in
  non local Contribution for L=           0  read in
    real space projection operators read in
  non local Contribution for L=           1  read in
    real space projection operators read in
  non local Contribution for L=           1  read in
    real space projection operators read in
    PAW grid and wavefunctions read in
 
   number of l-projection  operators is LMAX  =           4
   number of lm-projection operators is LMMAX =           8
 
  PAW_PBE Ga_d 06Jul2010                :
 energy of atom  1       EATOM=-2148.8298
 kinetic energy error for atom=    0.0102 (will be added to EATOM!!)
  PAW_PBE N 08Apr2002                   :
 energy of atom  2       EATOM= -264.5486
 kinetic energy error for atom=    0.0736 (will be added to EATOM!!)
 
 
 POSCAR: Ga2 N2
  positions in direct lattice
  No initial velocities read in
 exchange correlation table for  LEXCH =        8
   RHO(1)=    0.500       N(1)  =     2000
   RHO(2)=  100.500       N(2)  =     4000

 VTST: version 4.2, (08/11/21)

 CHAIN: initializing optimizer
 
 OPT: Using VASP Conjugate-Gradient optimizer
 CHAIN: Read ICHAIN            0
 
 POSCAR: Ga2 N2
  positions in direct lattice
  No initial velocities read in
 


--------------------------------------------------------------------------------------------------------


 ion  position               nearest neighbor table
   1  0.333  0.667  0.999-   4 1.95   4 1.95   4 1.95   3 1.96
   2  0.667  0.333  0.499-   3 1.95   3 1.95   3 1.95   4 1.96
   3  0.333  0.667  0.376-   2 1.95   2 1.95   2 1.95   1 1.96
   4  0.667  0.333  0.876-   1 1.95   1 1.95   1 1.95   2 1.96
 
  LATTYP: Found a hexagonal cell.
 ALAT       =     3.1969218337
 C/A-ratio  =     1.6281816284
  
  Lattice vectors:
  
 A1 = (   3.1969218337,   0.0000000000,   0.0000000000)
 A2 = (  -1.5984609169,   2.7686155219,   0.0000000000)
 A3 = (   0.0000000000,   0.0000000000,   5.2051693970)


Analysis of symmetry for initial positions (statically):
=====================================================================
 Subroutine PRICEL returns:
 Original cell was already a primitive cell.
 

 Routine SETGRP: Setting up the symmetry group for a 
 hexagonal supercell.


 Subroutine GETGRP returns: Found 12 space group operations
 (whereof  6 operations were pure point group operations)
 out of a pool of 24 trial point group operations.


The static configuration has the point symmetry C_3v.
 The point group associated with its full space group is C_6v.


Analysis of symmetry for dynamics (positions and initial velocities):
=====================================================================
 Subroutine PRICEL returns:
 Original cell was already a primitive cell.
 

 Routine SETGRP: Setting up the symmetry group for a 
 hexagonal supercell.


 Subroutine GETGRP returns: Found 12 space group operations
 (whereof  6 operations were pure point group operations)
 out of a pool of 24 trial point group operations.


The dynamic configuration has the point symmetry C_3v.
 The point group associated with its full space group is C_6v.


 Subroutine INISYM returns: Found 12 space group operations
 (whereof  6 operations are pure point group operations),
 and found     1 'primitive' translations


----------------------------------------------------------------------------------------

                                     Primitive cell                                     

  volume of cell :      46.0712

  direct lattice vectors                    reciprocal lattice vectors
     3.196921834  0.000000000  0.000000000     0.312800892  0.180595679  0.000000000
    -1.598460917  2.768615522  0.000000000     0.000000000  0.361191358  0.000000000
     0.000000000  0.000000000  5.205169397     0.000000000  0.000000000  0.192116706

  length of vectors
     3.196921834  3.196921834  5.205169397     0.361191358  0.361191358  0.192116706

  position of ions in fractional coordinates (direct lattice)
     0.333333333  0.666666667  0.999137235
     0.666666667  0.333333333  0.499137235
     0.333333333  0.666666667  0.375862765
     0.666666667  0.333333333  0.875862765

  ion indices of the primitive-cell ions
   primitive index   ion index
                 1           1
                 2           2
                 3           3
                 4           4

----------------------------------------------------------------------------------------

 
 
 KPOINTS: k-path added by seekpath. Formula: GaN S

Read explicit list of k-points.

 Found    388 k-points:

 Following reciprocal coordinates:
            Coordinates               Weight
  0.000000  0.000000  0.062500      0.001736
  0.083333  0.000000  0.062500      0.010417
  0.166667  0.000000  0.062500      0.010417
  0.250000  0.000000  0.062500      0.010417
  0.333333  0.000000  0.062500      0.010417
  0.416667  0.000000  0.062500      0.010417
  0.500000  0.000000  0.062500      0.005208
  0.083333  0.083333  0.062500      0.010417
  0.166667  0.083333  0.062500      0.020833
  0.250000  0.083333  0.062500      0.020833
  0.333333  0.083333  0.062500      0.020833
  0.416667  0.083333  0.062500      0.020833
  0.166667  0.166667  0.062500      0.010417
  0.250000  0.166667  0.062500      0.020833
  0.333333  0.166667  0.062500      0.020833
  0.416667  0.166667  0.062500      0.010417
  0.250000  0.250000  0.062500      0.010417
  0.333333  0.250000  0.062500      0.020833
  0.333333  0.333333  0.062500      0.003472
  0.000000  0.000000  0.187500      0.001736
  0.083333  0.000000  0.187500      0.010417
  0.166667  0.000000  0.187500      0.010417
  0.250000  0.000000  0.187500      0.010417
  0.333333  0.000000  0.187500      0.010417
  0.416667  0.000000  0.187500      0.010417
  0.500000  0.000000  0.187500      0.005208
  0.083333  0.083333  0.187500      0.010417
  0.166667  0.083333  0.187500      0.020833
  0.250000  0.083333  0.187500      0.020833
  0.333333  0.083333  0.187500      0.020833
  0.416667  0.083333  0.187500      0.020833
  0.166667  0.166667  0.187500      0.010417
  0.250000  0.166667  0.187500      0.020833
  0.333333  0.166667  0.187500      0.020833
  0.416667  0.166667  0.187500      0.010417
  0.250000  0.250000  0.187500      0.010417
  0.333333  0.250000  0.187500      0.020833
  0.333333  0.333333  0.187500      0.003472
  0.000000  0.000000  0.312500      0.001736
  0.083333  0.000000  0.312500      0.010417
  0.166667  0.000000  0.312500      0.010417
  0.250000  0.000000  0.312500      0.010417
  0.333333  0.000000  0.312500      0.010417
  0.416667  0.000000  0.312500      0.010417
  0.500000  0.000000  0.312500      0.005208
  0.083333  0.083333  0.312500      0.010417
  0.166667  0.083333  0.312500      0.020833
  0.250000  0.083333  0.312500      0.020833
  0.333333  0.083333  0.312500      0.020833
  0.416667  0.083333  0.312500      0.020833
  0.166667  0.166667  0.312500      0.010417
  0.250000  0.166667  0.312500      0.020833
  0.333333  0.166667  0.312500      0.020833
  0.416667  0.166667  0.312500      0.010417
  0.250000  0.250000  0.312500      0.010417
  0.333333  0.250000  0.312500      0.020833
  0.333333  0.333333  0.312500      0.003472
  0.000000  0.000000  0.437500      0.001736
  0.083333  0.000000  0.437500      0.010417
  0.166667  0.000000  0.437500      0.010417
  0.250000  0.000000  0.437500      0.010417
  0.333333  0.000000  0.437500      0.010417
  0.416667  0.000000  0.437500      0.010417
  0.500000  0.000000  0.437500      0.005208
  0.083333  0.083333  0.437500      0.010417
  0.166667  0.083333  0.437500      0.020833
  0.250000  0.083333  0.437500      0.020833
  0.333333  0.083333  0.437500      0.020833
  0.416667  0.083333  0.437500      0.020833
  0.166667  0.166667  0.437500      0.010417
  0.250000  0.166667  0.437500      0.020833
  0.333333  0.166667  0.437500      0.020833
  0.416667  0.166667  0.437500      0.010417
  0.250000  0.250000  0.437500      0.010417
  0.333333  0.250000  0.437500      0.020833
  0.333333  0.333333  0.437500      0.003472
  0.000000  0.000000  0.000000      0.000000
  0.011364  0.000000  0.000000      0.000000
  0.022727  0.000000  0.000000      0.000000
  0.034091  0.000000  0.000000      0.000000
  0.045455  0.000000  0.000000      0.000000
  0.056818  0.000000  0.000000      0.000000
  0.068182  0.000000  0.000000      0.000000
  0.079545  0.000000  0.000000      0.000000
  0.090909  0.000000  0.000000      0.000000
  0.102273  0.000000  0.000000      0.000000
  0.113636  0.000000  0.000000      0.000000
  0.125000  0.000000  0.000000      0.000000
  0.136364  0.000000  0.000000      0.000000
  0.147727  0.000000  0.000000      0.000000
  0.159091  0.000000  0.000000      0.000000
  0.170455  0.000000  0.000000      0.000000
  0.181818  0.000000  0.000000      0.000000
  0.193182  0.000000  0.000000      0.000000
  0.204545  0.000000  0.000000      0.000000
  0.215909  0.000000  0.000000      0.000000
  0.227273  0.000000  0.000000      0.000000
  0.238636  0.000000  0.000000      0.000000
  0.250000  0.000000  0.000000      0.000000
  0.261364  0.000000  0.000000      0.000000
  0.272727  0.000000  0.000000      0.000000
  0.284091  0.000000  0.000000      0.000000
  0.295455  0.000000  0.000000      0.000000
  0.306818  0.000000  0.000000      0.000000
  0.318182  0.000000  0.000000      0.000000
  0.329545  0.000000  0.000000      0.000000
  0.340909  0.000000  0.000000      0.000000
  0.352273  0.000000  0.000000      0.000000
  0.363636  0.000000  0.000000      0.000000
  0.375000  0.000000  0.000000      0.000000
  0.386364  0.000000  0.000000      0.000000
  0.397727  0.000000  0.000000      0.000000
  0.409091  0.000000  0.000000      0.000000
  0.420455  0.000000  0.000000      0.000000
  0.431818  0.000000  0.000000      0.000000
  0.443182  0.000000  0.000000      0.000000
  0.454545  0.000000  0.000000      0.000000
  0.465909  0.000000  0.000000      0.000000
  0.477273  0.000000  0.000000      0.000000
  0.488636  0.000000  0.000000      0.000000
  0.500000  0.000000  0.000000      0.000000
  0.493333  0.013333  0.000000      0.000000
  0.486667  0.026667  0.000000      0.000000
  0.480000  0.040000  0.000000      0.000000
  0.473333  0.053333  0.000000      0.000000
  0.466667  0.066667  0.000000      0.000000
  0.460000  0.080000  0.000000      0.000000
  0.453333  0.093333  0.000000      0.000000
  0.446667  0.106667  0.000000      0.000000
  0.440000  0.120000  0.000000      0.000000
  0.433333  0.133333  0.000000      0.000000
  0.426667  0.146667  0.000000      0.000000
  0.420000  0.160000  0.000000      0.000000
  0.413333  0.173333  0.000000      0.000000
  0.406667  0.186667  0.000000      0.000000
  0.400000  0.200000  0.000000      0.000000
  0.393333  0.213333  0.000000      0.000000
  0.386667  0.226667  0.000000      0.000000
  0.380000  0.240000  0.000000      0.000000
  0.373333  0.253333  0.000000      0.000000
  0.366667  0.266667  0.000000      0.000000
  0.360000  0.280000  0.000000      0.000000
  0.353333  0.293333  0.000000      0.000000
  0.346667  0.306667  0.000000      0.000000
  0.340000  0.320000  0.000000      0.000000
  0.333333  0.333333  0.000000      0.000000
  0.326797  0.326797  0.000000      0.000000
  0.320261  0.320261  0.000000      0.000000
  0.313725  0.313725  0.000000      0.000000
  0.307190  0.307190  0.000000      0.000000
  0.300654  0.300654  0.000000      0.000000
  0.294118  0.294118  0.000000      0.000000
  0.287582  0.287582  0.000000      0.000000
  0.281046  0.281046  0.000000      0.000000
  0.274510  0.274510  0.000000      0.000000
  0.267974  0.267974  0.000000      0.000000
  0.261438  0.261438  0.000000      0.000000
  0.254902  0.254902  0.000000      0.000000
  0.248366  0.248366  0.000000      0.000000
  0.241830  0.241830  0.000000      0.000000
  0.235294  0.235294  0.000000      0.000000
  0.228758  0.228758  0.000000      0.000000
  0.222222  0.222222  0.000000      0.000000
  0.215686  0.215686  0.000000      0.000000
  0.209150  0.209150  0.000000      0.000000
  0.202614  0.202614  0.000000      0.000000
  0.196078  0.196078  0.000000      0.000000
  0.189542  0.189542  0.000000      0.000000
  0.183007  0.183007  0.000000      0.000000
  0.176471  0.176471  0.000000      0.000000
  0.169935  0.169935  0.000000      0.000000
  0.163399  0.163399  0.000000      0.000000
  0.156863  0.156863  0.000000      0.000000
  0.150327  0.150327  0.000000      0.000000
  0.143791  0.143791  0.000000      0.000000
  0.137255  0.137255  0.000000      0.000000
  0.130719  0.130719  0.000000      0.000000
  0.124183  0.124183  0.000000      0.000000
  0.117647  0.117647  0.000000      0.000000
  0.111111  0.111111  0.000000      0.000000
  0.104575  0.104575  0.000000      0.000000
  0.098039  0.098039  0.000000      0.000000
  0.091503  0.091503  0.000000      0.000000
  0.084967  0.084967  0.000000      0.000000
  0.078431  0.078431  0.000000      0.000000
  0.071895  0.071895  0.000000      0.000000
  0.065359  0.065359  0.000000      0.000000
  0.058824  0.058824  0.000000      0.000000
  0.052288  0.052288  0.000000      0.000000
  0.045752  0.045752  0.000000      0.000000
  0.039216  0.039216  0.000000      0.000000
  0.032680  0.032680  0.000000      0.000000
  0.026144  0.026144  0.000000      0.000000
  0.019608  0.019608  0.000000      0.000000
  0.013072  0.013072  0.000000      0.000000
  0.006536  0.006536  0.000000      0.000000
  0.000000  0.000000  0.000000      0.000000
  0.000000  0.000000  0.021739      0.000000
  0.000000  0.000000  0.043478      0.000000
  0.000000  0.000000  0.065217      0.000000
  0.000000  0.000000  0.086957      0.000000
  0.000000  0.000000  0.108696      0.000000
  0.000000  0.000000  0.130435      0.000000
  0.000000  0.000000  0.152174      0.000000
  0.000000  0.000000  0.173913      0.000000
  0.000000  0.000000  0.195652      0.000000
  0.000000  0.000000  0.217391      0.000000
  0.000000  0.000000  0.239130      0.000000
  0.000000  0.000000  0.260870      0.000000
  0.000000  0.000000  0.282609      0.000000
  0.000000  0.000000  0.304348      0.000000
  0.000000  0.000000  0.326087      0.000000
  0.000000  0.000000  0.347826      0.000000
  0.000000  0.000000  0.369565      0.000000
  0.000000  0.000000  0.391304      0.000000
  0.000000  0.000000  0.413043      0.000000
  0.000000  0.000000  0.434783      0.000000
  0.000000  0.000000  0.456522      0.000000
  0.000000  0.000000  0.478261      0.000000
  0.000000  0.000000  0.500000      0.000000
  0.011364  0.000000  0.500000      0.000000
  0.022727  0.000000  0.500000      0.000000
  0.034091  0.000000  0.500000      0.000000
  0.045455  0.000000  0.500000      0.000000
  0.056818  0.000000  0.500000      0.000000
  0.068182  0.000000  0.500000      0.000000
  0.079545  0.000000  0.500000      0.000000
  0.090909  0.000000  0.500000      0.000000
  0.102273  0.000000  0.500000      0.000000
  0.113636  0.000000  0.500000      0.000000
  0.125000  0.000000  0.500000      0.000000
  0.136364  0.000000  0.500000      0.000000
  0.147727  0.000000  0.500000      0.000000
  0.159091  0.000000  0.500000      0.000000
  0.170455  0.000000  0.500000      0.000000
  0.181818  0.000000  0.500000      0.000000
  0.193182  0.000000  0.500000      0.000000
  0.204545  0.000000  0.500000      0.000000
  0.215909  0.000000  0.500000      0.000000
  0.227273  0.000000  0.500000      0.000000
  0.238636  0.000000  0.500000      0.000000
  0.250000  0.000000  0.500000      0.000000
  0.261364  0.000000  0.500000      0.000000
  0.272727  0.000000  0.500000      0.000000
  0.284091  0.000000  0.500000      0.000000
  0.295455  0.000000  0.500000      0.000000
  0.306818  0.000000  0.500000      0.000000
  0.318182  0.000000  0.500000      0.000000
  0.329545  0.000000  0.500000      0.000000
  0.340909  0.000000  0.500000      0.000000
  0.352273  0.000000  0.500000      0.000000
  0.363636  0.000000  0.500000      0.000000
  0.375000  0.000000  0.500000      0.000000
  0.386364  0.000000  0.500000      0.000000
  0.397727  0.000000  0.500000      0.000000
  0.409091  0.000000  0.500000      0.000000
  0.420455  0.000000  0.500000      0.000000
  0.431818  0.000000  0.500000      0.000000
  0.443182  0.000000  0.500000      0.000000
  0.454545  0.000000  0.500000      0.000000
  0.465909  0.000000  0.500000      0.000000
  0.477273  0.000000  0.500000      0.000000
  0.488636  0.000000  0.500000      0.000000
  0.500000  0.000000  0.500000      0.000000
  0.493333  0.013333  0.500000      0.000000
  0.486667  0.026667  0.500000      0.000000
  0.480000  0.040000  0.500000      0.000000
  0.473333  0.053333  0.500000      0.000000
  0.466667  0.066667  0.500000      0.000000
  0.460000  0.080000  0.500000      0.000000
  0.453333  0.093333  0.500000      0.000000
  0.446667  0.106667  0.500000      0.000000
  0.440000  0.120000  0.500000      0.000000
  0.433333  0.133333  0.500000      0.000000
  0.426667  0.146667  0.500000      0.000000
  0.420000  0.160000  0.500000      0.000000
  0.413333  0.173333  0.500000      0.000000
  0.406667  0.186667  0.500000      0.000000
  0.400000  0.200000  0.500000      0.000000
  0.393333  0.213333  0.500000      0.000000
  0.386667  0.226667  0.500000      0.000000
  0.380000  0.240000  0.500000      0.000000
  0.373333  0.253333  0.500000      0.000000
  0.366667  0.266667  0.500000      0.000000
  0.360000  0.280000  0.500000      0.000000
  0.353333  0.293333  0.500000      0.000000
  0.346667  0.306667  0.500000      0.000000
  0.340000  0.320000  0.500000      0.000000
  0.333333  0.333333  0.500000      0.000000
  0.326797  0.326797  0.500000      0.000000
  0.320261  0.320261  0.500000      0.000000
  0.313725  0.313725  0.500000      0.000000
  0.307190  0.307190  0.500000      0.000000
  0.300654  0.300654  0.500000      0.000000
  0.294118  0.294118  0.500000      0.000000
  0.287582  0.287582  0.500000      0.000000
  0.281046  0.281046  0.500000      0.000000
  0.274510  0.274510  0.500000      0.000000
  0.267974  0.267974  0.500000      0.000000
  0.261438  0.261438  0.500000      0.000000
  0.254902  0.254902  0.500000      0.000000
  0.248366  0.248366  0.500000      0.000000
  0.241830  0.241830  0.500000      0.000000
  0.235294  0.235294  0.500000      0.000000
  0.228758  0.228758  0.500000      0.000000
  0.222222  0.222222  0.500000      0.000000
  0.215686  0.215686  0.500000      0.000000
  0.209150  0.209150  0.500000      0.000000
  0.202614  0.202614  0.500000      0.000000
  0.196078  0.196078  0.500000      0.000000
  0.189542  0.189542  0.500000      0.000000
  0.183007  0.183007  0.500000      0.000000
  0.176471  0.176471  0.500000      0.000000
  0.169935  0.169935  0.500000      0.000000
  0.163399  0.163399  0.500000      0.000000
  0.156863  0.156863  0.500000      0.000000
  0.150327  0.150327  0.500000      0.000000
  0.143791  0.143791  0.500000      0.000000
  0.137255  0.137255  0.500000      0.000000
  0.130719  0.130719  0.500000      0.000000
  0.124183  0.124183  0.500000      0.000000
  0.117647  0.117647  0.500000      0.000000
  0.111111  0.111111  0.500000      0.000000
  0.104575  0.104575  0.500000      0.000000
  0.098039  0.098039  0.500000      0.000000
  0.091503  0.091503  0.500000      0.000000
  0.084967  0.084967  0.500000      0.000000
  0.078431  0.078431  0.500000      0.000000
  0.071895  0.071895  0.500000      0.000000
  0.065359  0.065359  0.500000      0.000000
  0.058824  0.058824  0.500000      0.000000
  0.052288  0.052288  0.500000      0.000000
  0.045752  0.045752  0.500000      0.000000
  0.039216  0.039216  0.500000      0.000000
  0.032680  0.032680  0.500000      0.000000
  0.026144  0.026144  0.500000      0.000000
  0.019608  0.019608  0.500000      0.000000
  0.013072  0.013072  0.500000      0.000000
  0.006536  0.006536  0.500000      0.000000
  0.000000  0.000000  0.500000      0.000000
  0.500000  0.000000  0.500000      0.000000
  0.500000  0.000000  0.478261      0.000000
  0.500000  0.000000  0.456522      0.000000
  0.500000  0.000000  0.434783      0.000000
  0.500000  0.000000  0.413043      0.000000
  0.500000  0.000000  0.391304      0.000000
  0.500000  0.000000  0.369565      0.000000
  0.500000  0.000000  0.347826      0.000000
  0.500000  0.000000  0.326087      0.000000
  0.500000  0.000000  0.304348      0.000000
  0.500000  0.000000  0.282609      0.000000
  0.500000  0.000000  0.260870      0.000000
  0.500000  0.000000  0.239130      0.000000
  0.500000  0.000000  0.217391      0.000000
  0.500000  0.000000  0.195652      0.000000
  0.500000  0.000000  0.173913      0.000000
  0.500000  0.000000  0.152174      0.000000
  0.500000  0.000000  0.130435      0.000000
  0.500000  0.000000  0.108696      0.000000
  0.500000  0.000000  0.086957      0.000000
  0.500000  0.000000  0.065217      0.000000
  0.500000  0.000000  0.043478      0.000000
  0.500000  0.000000  0.021739      0.000000
  0.500000  0.000000  0.000000      0.000000
  0.333333  0.333333  0.500000      0.000000
  0.333333  0.333333  0.478261      0.000000
  0.333333  0.333333  0.456522      0.000000
  0.333333  0.333333  0.434783      0.000000
  0.333333  0.333333  0.413043      0.000000
  0.333333  0.333333  0.391304      0.000000
  0.333333  0.333333  0.369565      0.000000
  0.333333  0.333333  0.347826      0.000000
  0.333333  0.333333  0.326087      0.000000
  0.333333  0.333333  0.304348      0.000000
  0.333333  0.333333  0.282609      0.000000
  0.333333  0.333333  0.260870      0.000000
  0.333333  0.333333  0.239130      0.000000
  0.333333  0.333333  0.217391      0.000000
  0.333333  0.333333  0.195652      0.000000
  0.333333  0.333333  0.173913      0.000000
  0.333333  0.333333  0.152174      0.000000
  0.333333  0.333333  0.130435      0.000000
  0.333333  0.333333  0.108696      0.000000
  0.333333  0.333333  0.086957      0.000000
  0.333333  0.333333  0.065217      0.000000
  0.333333  0.333333  0.043478      0.000000
  0.333333  0.333333  0.021739      0.000000
  0.333333  0.333333  0.000000      0.000000

 Following cartesian coordinates:
            Coordinates               Weight
  0.000000  0.000000  0.012007      0.001736
  0.026067  0.015050  0.012007      0.010417
  0.052133  0.030099  0.012007      0.010417
  0.078200  0.045149  0.012007      0.010417
  0.104267  0.060199  0.012007      0.010417
  0.130334  0.075248  0.012007      0.010417
  0.156400  0.090298  0.012007      0.005208
  0.026067  0.045149  0.012007      0.010417
  0.052133  0.060199  0.012007      0.020833
  0.078200  0.075248  0.012007      0.020833
  0.104267  0.090298  0.012007      0.020833
  0.130334  0.105347  0.012007      0.020833
  0.052133  0.090298  0.012007      0.010417
  0.078200  0.105347  0.012007      0.020833
  0.104267  0.120397  0.012007      0.020833
  0.130334  0.135447  0.012007      0.010417
  0.078200  0.135447  0.012007      0.010417
  0.104267  0.150496  0.012007      0.020833
  0.104267  0.180596  0.012007      0.003472
  0.000000  0.000000  0.036022      0.001736
  0.026067  0.015050  0.036022      0.010417
  0.052133  0.030099  0.036022      0.010417
  0.078200  0.045149  0.036022      0.010417
  0.104267  0.060199  0.036022      0.010417
  0.130334  0.075248  0.036022      0.010417
  0.156400  0.090298  0.036022      0.005208
  0.026067  0.045149  0.036022      0.010417
  0.052133  0.060199  0.036022      0.020833
  0.078200  0.075248  0.036022      0.020833
  0.104267  0.090298  0.036022      0.020833
  0.130334  0.105347  0.036022      0.020833
  0.052133  0.090298  0.036022      0.010417
  0.078200  0.105347  0.036022      0.020833
  0.104267  0.120397  0.036022      0.020833
  0.130334  0.135447  0.036022      0.010417
  0.078200  0.135447  0.036022      0.010417
  0.104267  0.150496  0.036022      0.020833
  0.104267  0.180596  0.036022      0.003472
  0.000000  0.000000  0.060036      0.001736
  0.026067  0.015050  0.060036      0.010417
  0.052133  0.030099  0.060036      0.010417
  0.078200  0.045149  0.060036      0.010417
  0.104267  0.060199  0.060036      0.010417
  0.130334  0.075248  0.060036      0.010417
  0.156400  0.090298  0.060036      0.005208
  0.026067  0.045149  0.060036      0.010417
  0.052133  0.060199  0.060036      0.020833
  0.078200  0.075248  0.060036      0.020833
  0.104267  0.090298  0.060036      0.020833
  0.130334  0.105347  0.060036      0.020833
  0.052133  0.090298  0.060036      0.010417
  0.078200  0.105347  0.060036      0.020833
  0.104267  0.120397  0.060036      0.020833
  0.130334  0.135447  0.060036      0.010417
  0.078200  0.135447  0.060036      0.010417
  0.104267  0.150496  0.060036      0.020833
  0.104267  0.180596  0.060036      0.003472
  0.000000  0.000000  0.084051      0.001736
  0.026067  0.015050  0.084051      0.010417
  0.052133  0.030099  0.084051      0.010417
  0.078200  0.045149  0.084051      0.010417
  0.104267  0.060199  0.084051      0.010417
  0.130334  0.075248  0.084051      0.010417
  0.156400  0.090298  0.084051      0.005208
  0.026067  0.045149  0.084051      0.010417
  0.052133  0.060199  0.084051      0.020833
  0.078200  0.075248  0.084051      0.020833
  0.104267  0.090298  0.084051      0.020833
  0.130334  0.105347  0.084051      0.020833
  0.052133  0.090298  0.084051      0.010417
  0.078200  0.105347  0.084051      0.020833
  0.104267  0.120397  0.084051      0.020833
  0.130334  0.135447  0.084051      0.010417
  0.078200  0.135447  0.084051      0.010417
  0.104267  0.150496  0.084051      0.020833
  0.104267  0.180596  0.084051      0.003472
  0.000000  0.000000  0.000000      0.000000
  0.003555  0.002052  0.000000      0.000000
  0.007109  0.004104  0.000000      0.000000
  0.010664  0.006157  0.000000      0.000000
  0.014218  0.008209  0.000000      0.000000
  0.017773  0.010261  0.000000      0.000000
  0.021327  0.012313  0.000000      0.000000
  0.024882  0.014366  0.000000      0.000000
  0.028436  0.016418  0.000000      0.000000
  0.031991  0.018470  0.000000      0.000000
  0.035546  0.020522  0.000000      0.000000
  0.039100  0.022574  0.000000      0.000000
  0.042655  0.024627  0.000000      0.000000
  0.046209  0.026679  0.000000      0.000000
  0.049764  0.028731  0.000000      0.000000
  0.053318  0.030783  0.000000      0.000000
  0.056873  0.032836  0.000000      0.000000
  0.060427  0.034888  0.000000      0.000000
  0.063982  0.036940  0.000000      0.000000
  0.067537  0.038992  0.000000      0.000000
  0.071091  0.041044  0.000000      0.000000
  0.074646  0.043097  0.000000      0.000000
  0.078200  0.045149  0.000000      0.000000
  0.081755  0.047201  0.000000      0.000000
  0.085309  0.049253  0.000000      0.000000
  0.088864  0.051306  0.000000      0.000000
  0.092418  0.053358  0.000000      0.000000
  0.095973  0.055410  0.000000      0.000000
  0.099528  0.057462  0.000000      0.000000
  0.103082  0.059514  0.000000      0.000000
  0.106637  0.061567  0.000000      0.000000
  0.110191  0.063619  0.000000      0.000000
  0.113746  0.065671  0.000000      0.000000
  0.117300  0.067723  0.000000      0.000000
  0.120855  0.069776  0.000000      0.000000
  0.124409  0.071828  0.000000      0.000000
  0.127964  0.073880  0.000000      0.000000
  0.131519  0.075932  0.000000      0.000000
  0.135073  0.077984  0.000000      0.000000
  0.138628  0.080037  0.000000      0.000000
  0.142182  0.082089  0.000000      0.000000
  0.145737  0.084141  0.000000      0.000000
  0.149291  0.086193  0.000000      0.000000
  0.152846  0.088246  0.000000      0.000000
  0.156400  0.090298  0.000000      0.000000
  0.154315  0.093910  0.000000      0.000000
  0.152230  0.097522  0.000000      0.000000
  0.150144  0.101134  0.000000      0.000000
  0.148059  0.104745  0.000000      0.000000
  0.145974  0.108357  0.000000      0.000000
  0.143888  0.111969  0.000000      0.000000
  0.141803  0.115581  0.000000      0.000000
  0.139718  0.119193  0.000000      0.000000
  0.137632  0.122805  0.000000      0.000000
  0.135547  0.126417  0.000000      0.000000
  0.133462  0.130029  0.000000      0.000000
  0.131376  0.133641  0.000000      0.000000
  0.129291  0.137253  0.000000      0.000000
  0.127206  0.140865  0.000000      0.000000
  0.125120  0.144477  0.000000      0.000000
  0.123035  0.148088  0.000000      0.000000
  0.120950  0.151700  0.000000      0.000000
  0.118864  0.155312  0.000000      0.000000
  0.116779  0.158924  0.000000      0.000000
  0.114694  0.162536  0.000000      0.000000
  0.112608  0.166148  0.000000      0.000000
  0.110523  0.169760  0.000000      0.000000
  0.108438  0.173372  0.000000      0.000000
  0.106352  0.176984  0.000000      0.000000
  0.104267  0.180596  0.000000      0.000000
  0.102223  0.177055  0.000000      0.000000
  0.100178  0.173513  0.000000      0.000000
  0.098134  0.169972  0.000000      0.000000
  0.096089  0.166431  0.000000      0.000000
  0.094045  0.162890  0.000000      0.000000
  0.092000  0.159349  0.000000      0.000000
  0.089956  0.155808  0.000000      0.000000
  0.087911  0.152267  0.000000      0.000000
  0.085867  0.148726  0.000000      0.000000
  0.083822  0.145185  0.000000      0.000000
  0.081778  0.141644  0.000000      0.000000
  0.079734  0.138103  0.000000      0.000000
  0.077689  0.134561  0.000000      0.000000
  0.075645  0.131020  0.000000      0.000000
  0.073600  0.127479  0.000000      0.000000
  0.071556  0.123938  0.000000      0.000000
  0.069511  0.120397  0.000000      0.000000
  0.067467  0.116856  0.000000      0.000000
  0.065422  0.113315  0.000000      0.000000
  0.063378  0.109774  0.000000      0.000000
  0.061334  0.106233  0.000000      0.000000
  0.059289  0.102692  0.000000      0.000000
  0.057245  0.099151  0.000000      0.000000
  0.055200  0.095609  0.000000      0.000000
  0.053156  0.092068  0.000000      0.000000
  0.051111  0.088527  0.000000      0.000000
  0.049067  0.084986  0.000000      0.000000
  0.047022  0.081445  0.000000      0.000000
  0.044978  0.077904  0.000000      0.000000
  0.042933  0.074363  0.000000      0.000000
  0.040889  0.070822  0.000000      0.000000
  0.038845  0.067281  0.000000      0.000000
  0.036800  0.063740  0.000000      0.000000
  0.034756  0.060199  0.000000      0.000000
  0.032711  0.056657  0.000000      0.000000
  0.030667  0.053116  0.000000      0.000000
  0.028622  0.049575  0.000000      0.000000
  0.026578  0.046034  0.000000      0.000000
  0.024533  0.042493  0.000000      0.000000
  0.022489  0.038952  0.000000      0.000000
  0.020445  0.035411  0.000000      0.000000
  0.018400  0.031870  0.000000      0.000000
  0.016356  0.028329  0.000000      0.000000
  0.014311  0.024788  0.000000      0.000000
  0.012267  0.021247  0.000000      0.000000
  0.010222  0.017705  0.000000      0.000000
  0.008178  0.014164  0.000000      0.000000
  0.006133  0.010623  0.000000      0.000000
  0.004089  0.007082  0.000000      0.000000
  0.002044  0.003541  0.000000      0.000000
  0.000000  0.000000  0.000000      0.000000
  0.000000  0.000000  0.004176      0.000000
  0.000000  0.000000  0.008353      0.000000
  0.000000  0.000000  0.012529      0.000000
  0.000000  0.000000  0.016706      0.000000
  0.000000  0.000000  0.020882      0.000000
  0.000000  0.000000  0.025059      0.000000
  0.000000  0.000000  0.029235      0.000000
  0.000000  0.000000  0.033412      0.000000
  0.000000  0.000000  0.037588      0.000000
  0.000000  0.000000  0.041765      0.000000
  0.000000  0.000000  0.045941      0.000000
  0.000000  0.000000  0.050117      0.000000
  0.000000  0.000000  0.054294      0.000000
  0.000000  0.000000  0.058470      0.000000
  0.000000  0.000000  0.062647      0.000000
  0.000000  0.000000  0.066823      0.000000
  0.000000  0.000000  0.071000      0.000000
  0.000000  0.000000  0.075176      0.000000
  0.000000  0.000000  0.079353      0.000000
  0.000000  0.000000  0.083529      0.000000
  0.000000  0.000000  0.087705      0.000000
  0.000000  0.000000  0.091882      0.000000
  0.000000  0.000000  0.096058      0.000000
  0.003555  0.002052  0.096058      0.000000
  0.007109  0.004104  0.096058      0.000000
  0.010664  0.006157  0.096058      0.000000
  0.014218  0.008209  0.096058      0.000000
  0.017773  0.010261  0.096058      0.000000
  0.021327  0.012313  0.096058      0.000000
  0.024882  0.014366  0.096058      0.000000
  0.028436  0.016418  0.096058      0.000000
  0.031991  0.018470  0.096058      0.000000
  0.035546  0.020522  0.096058      0.000000
  0.039100  0.022574  0.096058      0.000000
  0.042655  0.024627  0.096058      0.000000
  0.046209  0.026679  0.096058      0.000000
  0.049764  0.028731  0.096058      0.000000
  0.053318  0.030783  0.096058      0.000000
  0.056873  0.032836  0.096058      0.000000
  0.060427  0.034888  0.096058      0.000000
  0.063982  0.036940  0.096058      0.000000
  0.067537  0.038992  0.096058      0.000000
  0.071091  0.041044  0.096058      0.000000
  0.074646  0.043097  0.096058      0.000000
  0.078200  0.045149  0.096058      0.000000
  0.081755  0.047201  0.096058      0.000000
  0.085309  0.049253  0.096058      0.000000
  0.088864  0.051306  0.096058      0.000000
  0.092418  0.053358  0.096058      0.000000
  0.095973  0.055410  0.096058      0.000000
  0.099528  0.057462  0.096058      0.000000
  0.103082  0.059514  0.096058      0.000000
  0.106637  0.061567  0.096058      0.000000
  0.110191  0.063619  0.096058      0.000000
  0.113746  0.065671  0.096058      0.000000
  0.117300  0.067723  0.096058      0.000000
  0.120855  0.069776  0.096058      0.000000
  0.124409  0.071828  0.096058      0.000000
  0.127964  0.073880  0.096058      0.000000
  0.131519  0.075932  0.096058      0.000000
  0.135073  0.077984  0.096058      0.000000
  0.138628  0.080037  0.096058      0.000000
  0.142182  0.082089  0.096058      0.000000
  0.145737  0.084141  0.096058      0.000000
  0.149291  0.086193  0.096058      0.000000
  0.152846  0.088246  0.096058      0.000000
  0.156400  0.090298  0.096058      0.000000
  0.154315  0.093910  0.096058      0.000000
  0.152230  0.097522  0.096058      0.000000
  0.150144  0.101134  0.096058      0.000000
  0.148059  0.104745  0.096058      0.000000
  0.145974  0.108357  0.096058      0.000000
  0.143888  0.111969  0.096058      0.000000
  0.141803  0.115581  0.096058      0.000000
  0.139718  0.119193  0.096058      0.000000
  0.137632  0.122805  0.096058      0.000000
  0.135547  0.126417  0.096058      0.000000
  0.133462  0.130029  0.096058      0.000000
  0.131376  0.133641  0.096058      0.000000
  0.129291  0.137253  0.096058      0.000000
  0.127206  0.140865  0.096058      0.000000
  0.125120  0.144477  0.096058      0.000000
  0.123035  0.148088  0.096058      0.000000
  0.120950  0.151700  0.096058      0.000000
  0.118864  0.155312  0.096058      0.000000
  0.116779  0.158924  0.096058      0.000000
  0.114694  0.162536  0.096058      0.000000
  0.112608  0.166148  0.096058      0.000000
  0.110523  0.169760  0.096058      0.000000
  0.108438  0.173372  0.096058      0.000000
  0.106352  0.176984  0.096058      0.000000
  0.104267  0.180596  0.096058      0.000000
  0.102223  0.177055  0.096058      0.000000
  0.100178  0.173513  0.096058      0.000000
  0.098134  0.169972  0.096058      0.000000
  0.096089  0.166431  0.096058      0.000000
  0.094045  0.162890  0.096058      0.000000
  0.092000  0.159349  0.096058      0.000000
  0.089956  0.155808  0.096058      0.000000
  0.087911  0.152267  0.096058      0.000000
  0.085867  0.148726  0.096058      0.000000
  0.083822  0.145185  0.096058      0.000000
  0.081778  0.141644  0.096058      0.000000
  0.079734  0.138103  0.096058      0.000000
  0.077689  0.134561  0.096058      0.000000
  0.075645  0.131020  0.096058      0.000000
  0.073600  0.127479  0.096058      0.000000
  0.071556  0.123938  0.096058      0.000000
  0.069511  0.120397  0.096058      0.000000
  0.067467  0.116856  0.096058      0.000000
  0.065422  0.113315  0.096058      0.000000
  0.063378  0.109774  0.096058      0.000000
  0.061334  0.106233  0.096058      0.000000
  0.059289  0.102692  0.096058      0.000000
  0.057245  0.099151  0.096058      0.000000
  0.055200  0.095609  0.096058      0.000000
  0.053156  0.092068  0.096058      0.000000
  0.051111  0.088527  0.096058      0.000000
  0.049067  0.084986  0.096058      0.000000
  0.047022  0.081445  0.096058      0.000000
  0.044978  0.077904  0.096058      0.000000
  0.042933  0.074363  0.096058      0.000000
  0.040889  0.070822  0.096058      0.000000
  0.038845  0.067281  0.096058      0.000000
  0.036800  0.063740  0.096058      0.000000
  0.034756  0.060199  0.096058      0.000000
  0.032711  0.056657  0.096058      0.000000
  0.030667  0.053116  0.096058      0.000000
  0.028622  0.049575  0.096058      0.000000
  0.026578  0.046034  0.096058      0.000000
  0.024533  0.042493  0.096058      0.000000
  0.022489  0.038952  0.096058      0.000000
  0.020445  0.035411  0.096058      0.000000
  0.018400  0.031870  0.096058      0.000000
  0.016356  0.028329  0.096058      0.000000
  0.014311  0.024788  0.096058      0.000000
  0.012267  0.021247  0.096058      0.000000
  0.010222  0.017705  0.096058      0.000000
  0.008178  0.014164  0.096058      0.000000
  0.006133  0.010623  0.096058      0.000000
  0.004089  0.007082  0.096058      0.000000
  0.002044  0.003541  0.096058      0.000000
  0.000000  0.000000  0.096058      0.000000
  0.156400  0.090298  0.096058      0.000000
  0.156400  0.090298  0.091882      0.000000
  0.156400  0.090298  0.087705      0.000000
  0.156400  0.090298  0.083529      0.000000
  0.156400  0.090298  0.079353      0.000000
  0.156400  0.090298  0.075176      0.000000
  0.156400  0.090298  0.071000      0.000000
  0.156400  0.090298  0.066823      0.000000
  0.156400  0.090298  0.062647      0.000000
  0.156400  0.090298  0.058470      0.000000
  0.156400  0.090298  0.054294      0.000000
  0.156400  0.090298  0.050117      0.000000
  0.156400  0.090298  0.045941      0.000000
  0.156400  0.090298  0.041765      0.000000
  0.156400  0.090298  0.037588      0.000000
  0.156400  0.090298  0.033412      0.000000
  0.156400  0.090298  0.029235      0.000000
  0.156400  0.090298  0.025059      0.000000
  0.156400  0.090298  0.020882      0.000000
  0.156400  0.090298  0.016706      0.000000
  0.156400  0.090298  0.012529      0.000000
  0.156400  0.090298  0.008353      0.000000
  0.156400  0.090298  0.004176      0.000000
  0.156400  0.090298  0.000000      0.000000
  0.104267  0.180596  0.096058      0.000000
  0.104267  0.180596  0.091882      0.000000
  0.104267  0.180596  0.087705      0.000000
  0.104267  0.180596  0.083529      0.000000
  0.104267  0.180596  0.079353      0.000000
  0.104267  0.180596  0.075176      0.000000
  0.104267  0.180596  0.071000      0.000000
  0.104267  0.180596  0.066823      0.000000
  0.104267  0.180596  0.062647      0.000000
  0.104267  0.180596  0.058470      0.000000
  0.104267  0.180596  0.054294      0.000000
  0.104267  0.180596  0.050117      0.000000
  0.104267  0.180596  0.045941      0.000000
  0.104267  0.180596  0.041765      0.000000
  0.104267  0.180596  0.037588      0.000000
  0.104267  0.180596  0.033412      0.000000
  0.104267  0.180596  0.029235      0.000000
  0.104267  0.180596  0.025059      0.000000
  0.104267  0.180596  0.020882      0.000000
  0.104267  0.180596  0.016706      0.000000
  0.104267  0.180596  0.012529      0.000000
  0.104267  0.180596  0.008353      0.000000
  0.104267  0.180596  0.004176      0.000000
  0.104267  0.180596  0.000000      0.000000
 
 -----------------------------------------------------------------------------
|                                                                             |
|           W    W    AA    RRRRR   N    N  II  N    N   GGGG   !!!           |
|           W    W   A  A   R    R  NN   N  II  NN   N  G    G  !!!           |
|           W    W  A    A  R    R  N N  N  II  N N  N  G       !!!           |
|           W WW W  AAAAAA  RRRRR   N  N N  II  N  N N  G  GGG   !            |
|           WW  WW  A    A  R   R   N   NN  II  N   NN  G    G                |
|           W    W  A    A  R    R  N    N  II  N    N   GGGG   !!!           |
|                                                                             |
|     The number of bands has been changed from the values supplied in        |
|     the INCAR file. This is a result of running the parallel version.       |
|     The orbitals not found in the WAVECAR file will be initialized with     |
|     random numbers, which is usually adequate. For correlated               |
|     calculations, however, you should redo the groundstate calculation.     |
|     I found NBANDS = 34. Now, NBANDS = 40.                                  |
|                                                                             |
 -----------------------------------------------------------------------------



--------------------------------------------------------------------------------------------------------




 Dimension of arrays:
   k-points           NKPTS =    388   k-points in BZ     NKDIM =    388   number of bands    NBANDS=     40
   number of dos      NEDOS =    301   number of ions     NIONS =      4
   non local maximal  LDIM  =      6   non local SUM 2l+1 LMDIM =     18
   total plane-waves  NPLWV =   7168
   max r-space proj   IRMAX =      1   max aug-charges    IRDMAX=   6095
   dimension x,y,z NGX =    16 NGY =   16 NGZ =   28
   dimension x,y,z NGXF=    32 NGYF=   32 NGZF=   56
   support grid    NGXF=    32 NGYF=   32 NGZF=   56
   ions per type =               2   2
   NGX,Y,Z   is equivalent  to a cutoff of   8.32,  8.32,  8.94 a.u.
   NGXF,Y,Z  is equivalent  to a cutoff of  16.64, 16.64, 17.89 a.u.

 SYSTEM =  unknown system                          
 POSCAR =  Ga2 N2                                  

 Startparameter for this run:
   NWRITE =      2    write-flag & timer
   PREC   = normal    normal or accurate (medium, high low for compatibility)
   ISTART =      0    job   : 0-new  1-cont  2-samecut
   ICHARG =      2    charge: 1-file 2-atom 10-const
   ISPIN  =      1    spin polarized calculation?
   LNONCOLLINEAR =      F non collinear calculations
   LSORBIT =      F    spin-orbit coupling
   INIWAV =      1    electr: 0-lowe 1-rand  2-diag
   LASPH  =      T    aspherical Exc in radial PAW
 Electronic Relaxation 1
   ENCUT  =  400.0 eV  29.40 Ry    5.42 a.u.   5.21  5.21  8.49*2*pi/ulx,y,z
   ENINI  =  400.0     initial cutoff
   ENAUG  =  627.1 eV  augmentation charge cutoff
   NELM   =    100;   NELMIN=  2; NELMDL= -5     # of ELM steps 
   EDIFF  = 0.1E-04   stopping-criterion for ELM
   LREAL  =      F    real-space projection
   NLSPLINE    = F    spline interpolate recip. space projectors
   LCOMPAT=      F    compatible to vasp.4.4
   GGA_COMPAT  = T    GGA compatible to vasp.4.4-vasp.4.6
   LMAXPAW     = -100 max onsite density
   LMAXMIX     =    2 max onsite mixed and CHGCAR
   VOSKOWN=      0    Vosko Wilk Nusair interpolation
   ROPT   =    0.00000   0.00000
 Ionic relaxation
   EDIFFG = 0.1E-03   stopping-criterion for IOM
   NSW    =      1    number of steps for IOM
   NBLOCK =      1;   KBLOCK =      1    inner block; outer block 
   IBRION =      2    ionic relax: 0-MD 1-quasi-New 2-CG
   NFREE  =      1    steps in history (QN), initial steepest desc. (CG)
   ISIF   =      0    stress and relaxation
   IWAVPR =     11    prediction:  0-non 1-charg 2-wave 3-comb
   ISYM   =      2    0-nonsym 1-usesym 2-fastsym
   LCORR  =      T    Harris-Foulkes like correction to forces

   POTIM  = 0.5000    time-step for ionic-motion
   TEIN   =    0.0    initial temperature
   TEBEG  =    0.0;   TEEND  =   0.0 temperature during run
   SMASS  =  -3.00    Nose mass-parameter (am)
   estimated Nose-frequenzy (Omega)   =  0.10E-29 period in steps = 0.13E+47 mass=  -0.234E-27a.u.
   SCALEE = 1.0000    scale energy and forces
   NPACO  =    256;   APACO  = 10.0  distance and # of slots for P.C.
   PSTRESS=    0.0 pullay stress

  Mass of Ions in am
   POMASS =  69.72 14.00
  Ionic Valenz
   ZVAL   =  13.00  5.00
  Atomic Wigner-Seitz radii
   RWIGS  =  -1.00 -1.00
  virtual crystal weights 
   VCA    =   1.00  1.00
   NELECT =      36.0000    total number of electrons
   NUPDOWN=      -1.0000    fix difference up-down

 DOS related values:
   EMIN   =  10.00;   EMAX   =-10.00  energy-range for DOS
   EFERMI =   0.00
   ISMEAR =     0;   SIGMA  =   0.10  broadening in eV -4-tet -1-fermi 0-gaus

 Electronic relaxation 2 (details)
   IALGO  =     38    algorithm
   LDIAG  =      T    sub-space diagonalisation (order eigenvalues)
   LSUBROT=      F    optimize rotation matrix (better conditioning)
   TURBO    =      0    0=normal 1=particle mesh
   IRESTART =      0    0=no restart 2=restart with 2 vectors
   NREBOOT  =      0    no. of reboots
   NMIN     =      0    reboot dimension
   EREF     =   0.00    reference energy to select bands
   IMIX   =      4    mixing-type and parameters
     AMIX     =   0.40;   BMIX     =  1.00
     AMIX_MAG =   1.60;   BMIX_MAG =  1.00
     AMIN     =   0.10
     WC   =   100.;   INIMIX=   1;  MIXPRE=   1;  MAXMIX= -45

 Intra band minimization:
   WEIMIN = 0.0010     energy-eigenvalue tresh-hold
   EBREAK =  0.63E-07  absolut break condition
   DEPER  =   0.30     relativ break condition  

   TIME   =   0.40     timestep for ELM

  volume/ion in A,a.u.               =      11.52        77.73
  Fermi-wavevector in a.u.,A,eV,Ry     =   1.507877  2.849474 30.935458  2.273692
  Thomas-Fermi vector in A             =   2.618405
 
 Write flags
   LWAVE        =      F    write WAVECAR
   LDOWNSAMPLE  =      F    k-point downsampling of WAVECAR
   LCHARG       =      F    write CHGCAR
   LVTOT        =      F    write LOCPOT, total local potential
   LVHAR        =      F    write LOCPOT, Hartree potential only
   LELF         =      F    write electronic localiz. function (ELF)
   LORBIT       =     10    0 simple, 1 ext, 2 COOP (PROOUT), +10 PAW based schemes


 Dipole corrections
   LMONO  =      F    monopole corrections only (constant potential shift)
   LDIPOL =      F    correct potential (dipole corrections)
   IDIPOL =      0    1-x, 2-y, 3-z, 4-all directions 
   EPSILON=  1.0000000 bulk dielectric constant

 Exchange correlation treatment:
   GGA     =    --    GGA type
   LEXCH   =     8    internal setting for exchange type
   LIBXC   =     F    Libxc                    
   VOSKOWN =     0    Vosko Wilk Nusair interpolation
   LHFCALC =     F    Hartree Fock is set to
   LHFONE  =     F    Hartree Fock one center treatment
   AEXX    =    0.0000 exact exchange contribution

 Linear response parameters
   LEPSILON=     F    determine dielectric tensor
   LRPA    =     F    only Hartree local field effects (RPA)
   LNABLA  =     F    use nabla operator in PAW spheres
   LVEL    =     F    velocity operator in full k-point grid
   CSHIFT  =0.1000    complex shift for real part using Kramers Kronig
   OMEGAMAX=  -1.0    maximum frequency
   DEG_THRESHOLD= 0.2000000E-02 threshold for treating states as degnerate
   RTIME   =   -0.100 relaxation time in fs
  (WPLASMAI=    0.000 imaginary part of plasma frequency in eV, 0.658/RTIME)
   DFIELD  = 0.0000000 0.0000000 0.0000000 field for delta impulse in time
 
  Optional k-point grid parameters
   LKPOINTS_OPT  =     F    use optional k-point grid
   KPOINTS_OPT_MODE=     1    mode for optional k-point grid
 
 Orbital magnetization related:
   ORBITALMAG=     F  switch on orbital magnetization
   LCHIMAG   =     F  perturbation theory with respect to B field
   DQ        =  0.001000  dq finite difference perturbation B field
   LLRAUG    =     F  two centre corrections for induced B field



--------------------------------------------------------------------------------------------------------


 conjugate gradient relaxation of ions
 charge density and potential will be updated during run
 non-spin polarized calculation
 Variant of blocked Davidson
 Davidson routine will perform the subspace rotation
 perform sub-space diagonalisation
    after iterative eigenvector-optimisation
 modified Broyden-mixing scheme, WC =      100.0
 initial mixing is a Kerker type mixing with AMIX =  0.4000 and BMIX =      1.0000
 Hartree-type preconditioning will be used
 using additional bands           22
 reciprocal scheme for non local part
 use partial core corrections
 calculate Harris-corrections to forces 
   (improved forces if not selfconsistent)
 use gradient corrections 
 use of overlap-Matrix (Vanderbilt PP)
 Gauss-broadening in eV      SIGMA  =   0.10


--------------------------------------------------------------------------------------------------------


  energy-cutoff  :      400.00
  volume of cell :       46.07
      direct lattice vectors                 reciprocal lattice vectors
     3.196921834  0.000000000  0.000000000     0.312800892  0.180595679  0.000000000
    -1.598460917  2.768615522  0.000000000     0.000000000  0.361191358  0.000000000
     0.000000000  0.000000000  5.205169397     0.000000000  0.000000000  0.192116706

  length of vectors
     3.196921834  3.196921834  5.205169397     0.361191358  0.361191358  0.192116706


 
 k-points in units of 2pi/SCALE and weight: k-path added by seekpath. Formula: GaN S
   0.00000000  0.00000000  0.01200729       0.002
   0.02606674  0.01504964  0.01200729       0.010
   0.05213348  0.03009928  0.01200729       0.010
   0.07820022  0.04514892  0.01200729       0.010
   0.10426696  0.06019856  0.01200729       0.010
   0.13033370  0.07524820  0.01200729       0.010
   0.15640045  0.09029784  0.01200729       0.005
   0.02606674  0.04514892  0.01200729       0.010
   0.05213348  0.06019856  0.01200729       0.021
   0.07820022  0.07524820  0.01200729       0.021
   0.10426696  0.09029784  0.01200729       0.021
   0.13033370  0.10534748  0.01200729       0.021
   0.05213348  0.09029784  0.01200729       0.010
   0.07820022  0.10534748  0.01200729       0.021
   0.10426696  0.12039712  0.01200729       0.021
   0.13033370  0.13544676  0.01200729       0.010
   0.07820022  0.13544676  0.01200729       0.010
   0.10426696  0.15049640  0.01200729       0.021
   0.10426696  0.18059568  0.01200729       0.003
   0.00000000  0.00000000  0.03602188       0.002
   0.02606674  0.01504964  0.03602188       0.010
   0.05213348  0.03009928  0.03602188       0.010
   0.07820022  0.04514892  0.03602188       0.010
   0.10426696  0.06019856  0.03602188       0.010
   0.13033370  0.07524820  0.03602188       0.010
   0.15640045  0.09029784  0.03602188       0.005
   0.02606674  0.04514892  0.03602188       0.010
   0.05213348  0.06019856  0.03602188       0.021
   0.07820022  0.07524820  0.03602188       0.021
   0.10426696  0.09029784  0.03602188       0.021
   0.13033370  0.10534748  0.03602188       0.021
   0.05213348  0.09029784  0.03602188       0.010
   0.07820022  0.10534748  0.03602188       0.021
   0.10426696  0.12039712  0.03602188       0.021
   0.13033370  0.13544676  0.03602188       0.010
   0.07820022  0.13544676  0.03602188       0.010
   0.10426696  0.15049640  0.03602188       0.021
   0.10426696  0.18059568  0.03602188       0.003
   0.00000000  0.00000000  0.06003647       0.002
   0.02606674  0.01504964  0.06003647       0.010
   0.05213348  0.03009928  0.06003647       0.010
   0.07820022  0.04514892  0.06003647       0.010
   0.10426696  0.06019856  0.06003647       0.010
   0.13033370  0.07524820  0.06003647       0.010
   0.15640045  0.09029784  0.06003647       0.005
   0.02606674  0.04514892  0.06003647       0.010
   0.05213348  0.06019856  0.06003647       0.021
   0.07820022  0.07524820  0.06003647       0.021
   0.10426696  0.09029784  0.06003647       0.021
   0.13033370  0.10534748  0.06003647       0.021
   0.05213348  0.09029784  0.06003647       0.010
   0.07820022  0.10534748  0.06003647       0.021
   0.10426696  0.12039712  0.06003647       0.021
   0.13033370  0.13544676  0.06003647       0.010
   0.07820022  0.13544676  0.06003647       0.010
   0.10426696  0.15049640  0.06003647       0.021
   0.10426696  0.18059568  0.06003647       0.003
   0.00000000  0.00000000  0.08405106       0.002
   0.02606674  0.01504964  0.08405106       0.010
   0.05213348  0.03009928  0.08405106       0.010
   0.07820022  0.04514892  0.08405106       0.010
   0.10426696  0.06019856  0.08405106       0.010
   0.13033370  0.07524820  0.08405106       0.010
   0.15640045  0.09029784  0.08405106       0.005
   0.02606674  0.04514892  0.08405106       0.010
   0.05213348  0.06019856  0.08405106       0.021
   0.07820022  0.07524820  0.08405106       0.021
   0.10426696  0.09029784  0.08405106       0.021
   0.13033370  0.10534748  0.08405106       0.021
   0.05213348  0.09029784  0.08405106       0.010
   0.07820022  0.10534748  0.08405106       0.021
   0.10426696  0.12039712  0.08405106       0.021
   0.13033370  0.13544676  0.08405106       0.010
   0.07820022  0.13544676  0.08405106       0.010
   0.10426696  0.15049640  0.08405106       0.021
   0.10426696  0.18059568  0.08405106       0.003
   0.00000000  0.00000000  0.00000000       0.000
   0.00355456  0.00205222  0.00000000       0.000
   0.00710911  0.00410445  0.00000000       0.000
   0.01066367  0.00615667  0.00000000       0.000
   0.01421822  0.00820889  0.00000000       0.000
   0.01777278  0.01026112  0.00000000       0.000
   0.02132733  0.01231334  0.00000000       0.000
   0.02488189  0.01436557  0.00000000       0.000
   0.02843644  0.01641779  0.00000000       0.000
   0.03199100  0.01847001  0.00000000       0.000
   0.03554556  0.02052224  0.00000000       0.000
   0.03910011  0.02257446  0.00000000       0.000
   0.04265467  0.02462668  0.00000000       0.000
   0.04620922  0.02667891  0.00000000       0.000
   0.04976378  0.02873113  0.00000000       0.000
   0.05331833  0.03078335  0.00000000       0.000
   0.05687289  0.03283558  0.00000000       0.000
   0.06042744  0.03488780  0.00000000       0.000
   0.06398200  0.03694003  0.00000000       0.000
   0.06753656  0.03899225  0.00000000       0.000
   0.07109111  0.04104447  0.00000000       0.000
   0.07464567  0.04309670  0.00000000       0.000
   0.07820022  0.04514892  0.00000000       0.000
   0.08175478  0.04720114  0.00000000       0.000
   0.08530933  0.04925337  0.00000000       0.000
   0.08886389  0.05130559  0.00000000       0.000
   0.09241845  0.05335781  0.00000000       0.000
   0.09597300  0.05541004  0.00000000       0.000
   0.09952756  0.05746226  0.00000000       0.000
   0.10308211  0.05951449  0.00000000       0.000
   0.10663667  0.06156671  0.00000000       0.000
   0.11019122  0.06361893  0.00000000       0.000
   0.11374578  0.06567116  0.00000000       0.000
   0.11730033  0.06772338  0.00000000       0.000
   0.12085489  0.06977560  0.00000000       0.000
   0.12440945  0.07182783  0.00000000       0.000
   0.12796400  0.07388005  0.00000000       0.000
   0.13151856  0.07593227  0.00000000       0.000
   0.13507311  0.07798450  0.00000000       0.000
   0.13862767  0.08003672  0.00000000       0.000
   0.14218222  0.08208894  0.00000000       0.000
   0.14573678  0.08414117  0.00000000       0.000
   0.14929133  0.08619339  0.00000000       0.000
   0.15284589  0.08824562  0.00000000       0.000
   0.15640045  0.09029784  0.00000000       0.000
   0.15431511  0.09390975  0.00000000       0.000
   0.15222977  0.09752167  0.00000000       0.000
   0.15014443  0.10113358  0.00000000       0.000
   0.14805909  0.10474549  0.00000000       0.000
   0.14597375  0.10835741  0.00000000       0.000
   0.14388841  0.11196932  0.00000000       0.000
   0.14180307  0.11558123  0.00000000       0.000
   0.13971773  0.11919315  0.00000000       0.000
   0.13763239  0.12280506  0.00000000       0.000
   0.13554705  0.12641698  0.00000000       0.000
   0.13346171  0.13002889  0.00000000       0.000
   0.13137637  0.13364080  0.00000000       0.000
   0.12929104  0.13725272  0.00000000       0.000
   0.12720570  0.14086463  0.00000000       0.000
   0.12512036  0.14447654  0.00000000       0.000
   0.12303502  0.14808846  0.00000000       0.000
   0.12094968  0.15170037  0.00000000       0.000
   0.11886434  0.15531228  0.00000000       0.000
   0.11677900  0.15892420  0.00000000       0.000
   0.11469366  0.16253611  0.00000000       0.000
   0.11260832  0.16614802  0.00000000       0.000
   0.11052298  0.16975994  0.00000000       0.000
   0.10843764  0.17337185  0.00000000       0.000
   0.10635230  0.17698377  0.00000000       0.000
   0.10426696  0.18059568  0.00000000       0.000
   0.10222251  0.17705459  0.00000000       0.000
   0.10017806  0.17351350  0.00000000       0.000
   0.09813361  0.16997240  0.00000000       0.000
   0.09608916  0.16643131  0.00000000       0.000
   0.09404471  0.16289022  0.00000000       0.000
   0.09200026  0.15934913  0.00000000       0.000
   0.08995581  0.15580804  0.00000000       0.000
   0.08791136  0.15226695  0.00000000       0.000
   0.08586691  0.14872585  0.00000000       0.000
   0.08382246  0.14518476  0.00000000       0.000
   0.08177801  0.14164367  0.00000000       0.000
   0.07973356  0.13810258  0.00000000       0.000
   0.07768911  0.13456149  0.00000000       0.000
   0.07564466  0.13102039  0.00000000       0.000
   0.07360021  0.12747930  0.00000000       0.000
   0.07155576  0.12393821  0.00000000       0.000
   0.06951131  0.12039712  0.00000000       0.000
   0.06746686  0.11685603  0.00000000       0.000
   0.06542241  0.11331494  0.00000000       0.000
   0.06337796  0.10977384  0.00000000       0.000
   0.06133351  0.10623275  0.00000000       0.000
   0.05928906  0.10269166  0.00000000       0.000
   0.05724461  0.09915057  0.00000000       0.000
   0.05520016  0.09560948  0.00000000       0.000
   0.05315571  0.09206839  0.00000000       0.000
   0.05111126  0.08852729  0.00000000       0.000
   0.04906681  0.08498620  0.00000000       0.000
   0.04702236  0.08144511  0.00000000       0.000
   0.04497791  0.07790402  0.00000000       0.000
   0.04293346  0.07436293  0.00000000       0.000
   0.04088901  0.07082183  0.00000000       0.000
   0.03884456  0.06728074  0.00000000       0.000
   0.03680010  0.06373965  0.00000000       0.000
   0.03475565  0.06019856  0.00000000       0.000
   0.03271120  0.05665747  0.00000000       0.000
   0.03066675  0.05311638  0.00000000       0.000
   0.02862230  0.04957528  0.00000000       0.000
   0.02657785  0.04603419  0.00000000       0.000
   0.02453340  0.04249310  0.00000000       0.000
   0.02248895  0.03895201  0.00000000       0.000
   0.02044450  0.03541092  0.00000000       0.000
   0.01840005  0.03186983  0.00000000       0.000
   0.01635560  0.02832873  0.00000000       0.000
   0.01431115  0.02478764  0.00000000       0.000
   0.01226670  0.02124655  0.00000000       0.000
   0.01022225  0.01770546  0.00000000       0.000
   0.00817780  0.01416437  0.00000000       0.000
   0.00613335  0.01062328  0.00000000       0.000
   0.00408890  0.00708218  0.00000000       0.000
   0.00204445  0.00354109  0.00000000       0.000
   0.00000000  0.00000000  0.00000000       0.000
   0.00000000  0.00000000  0.00417645       0.000
   0.00000000  0.00000000  0.00835290       0.000
   0.00000000  0.00000000  0.01252935       0.000
   0.00000000  0.00000000  0.01670580       0.000
   0.00000000  0.00000000  0.02088225       0.000
   0.00000000  0.00000000  0.02505870       0.000
   0.00000000  0.00000000  0.02923515       0.000
   0.00000000  0.00000000  0.03341160       0.000
   0.00000000  0.00000000  0.03758805       0.000
   0.00000000  0.00000000  0.04176450       0.000
   0.00000000  0.00000000  0.04594095       0.000
   0.00000000  0.00000000  0.05011740       0.000
   0.00000000  0.00000000  0.05429385       0.000
   0.00000000  0.00000000  0.05847030       0.000
   0.00000000  0.00000000  0.06264675       0.000
   0.00000000  0.00000000  0.06682320       0.000
   0.00000000  0.00000000  0.07099965       0.000
   0.00000000  0.00000000  0.07517610       0.000
   0.00000000  0.00000000  0.07935255       0.000
   0.00000000  0.00000000  0.08352900       0.000
   0.00000000  0.00000000  0.08770545       0.000
   0.00000000  0.00000000  0.09188190       0.000
   0.00000000  0.00000000  0.09605835       0.000
   0.00355456  0.00205222  0.09605835       0.000
   0.00710911  0.00410445  0.09605835       0.000
   0.01066367  0.00615667  0.09605835       0.000
   0.01421822  0.00820889  0.09605835       0.000
   0.01777278  0.01026112  0.09605835       0.000
   0.02132733  0.01231334  0.09605835       0.000
   0.02488189  0.01436557  0.09605835       0.000
   0.02843644  0.01641779  0.09605835       0.000
   0.03199100  0.01847001  0.09605835       0.000
   0.03554556  0.02052224  0.09605835       0.000
   0.03910011  0.02257446  0.09605835       0.000
   0.04265467  0.02462668  0.09605835       0.000
   0.04620922  0.02667891  0.09605835       0.000
   0.04976378  0.02873113  0.09605835       0.000
   0.05331833  0.03078335  0.09605835       0.000
   0.05687289  0.03283558  0.09605835       0.000
   0.06042744  0.03488780  0.09605835       0.000
   0.06398200  0.03694003  0.09605835       0.000
   0.06753656  0.03899225  0.09605835       0.000
   0.07109111  0.04104447  0.09605835       0.000
   0.07464567  0.04309670  0.09605835       0.000
   0.07820022  0.04514892  0.09605835       0.000
   0.08175478  0.04720114  0.09605835       0.000
   0.08530933  0.04925337  0.09605835       0.000
   0.08886389  0.05130559  0.09605835       0.000
   0.09241845  0.05335781  0.09605835       0.000
   0.09597300  0.05541004  0.09605835       0.000
   0.09952756  0.05746226  0.09605835       0.000
   0.10308211  0.05951449  0.09605835       0.000
   0.10663667  0.06156671  0.09605835       0.000
   0.11019122  0.06361893  0.09605835       0.000
   0.11374578  0.06567116  0.09605835       0.000
   0.11730033  0.06772338  0.09605835       0.000
   0.12085489  0.06977560  0.09605835       0.000
   0.12440945  0.07182783  0.09605835       0.000
   0.12796400  0.07388005  0.09605835       0.000
   0.13151856  0.07593227  0.09605835       0.000
   0.13507311  0.07798450  0.09605835       0.000
   0.13862767  0.08003672  0.09605835       0.000
   0.14218222  0.08208894  0.09605835       0.000
   0.14573678  0.08414117  0.09605835       0.000
   0.14929133  0.08619339  0.09605835       0.000
   0.15284589  0.08824562  0.09605835       0.000
   0.15640045  0.09029784  0.09605835       0.000
   0.15431511  0.09390975  0.09605835       0.000
   0.15222977  0.09752167  0.09605835       0.000
   0.15014443  0.10113358  0.09605835       0.000
   0.14805909  0.10474549  0.09605835       0.000
   0.14597375  0.10835741  0.09605835       0.000
   0.14388841  0.11196932  0.09605835       0.000
   0.14180307  0.11558123  0.09605835       0.000
   0.13971773  0.11919315  0.09605835       0.000
   0.13763239  0.12280506  0.09605835       0.000
   0.13554705  0.12641698  0.09605835       0.000
   0.13346171  0.13002889  0.09605835       0.000
   0.13137637  0.13364080  0.09605835       0.000
   0.12929104  0.13725272  0.09605835       0.000
   0.12720570  0.14086463  0.09605835       0.000
   0.12512036  0.14447654  0.09605835       0.000
   0.12303502  0.14808846  0.09605835       0.000
   0.12094968  0.15170037  0.09605835       0.000
   0.11886434  0.15531228  0.09605835       0.000
   0.11677900  0.15892420  0.09605835       0.000
   0.11469366  0.16253611  0.09605835       0.000
   0.11260832  0.16614802  0.09605835       0.000
   0.11052298  0.16975994  0.09605835       0.000
   0.10843764  0.17337185  0.09605835       0.000
   0.10635230  0.17698377  0.09605835       0.000
   0.10426696  0.18059568  0.09605835       0.000
   0.10222251  0.17705459  0.09605835       0.000
   0.10017806  0.17351350  0.09605835       0.000
   0.09813361  0.16997240  0.09605835       0.000
   0.09608916  0.16643131  0.09605835       0.000
   0.09404471  0.16289022  0.09605835       0.000
   0.09200026  0.15934913  0.09605835       0.000
   0.08995581  0.15580804  0.09605835       0.000
   0.08791136  0.15226695  0.09605835       0.000
   0.08586691  0.14872585  0.09605835       0.000
   0.08382246  0.14518476  0.09605835       0.000
   0.08177801  0.14164367  0.09605835       0.000
   0.07973356  0.13810258  0.09605835       0.000
   0.07768911  0.13456149  0.09605835       0.000
   0.07564466  0.13102039  0.09605835       0.000
   0.07360021  0.12747930  0.09605835       0.000
   0.07155576  0.12393821  0.09605835       0.000
   0.06951131  0.12039712  0.09605835       0.000
   0.06746686  0.11685603  0.09605835       0.000
   0.06542241  0.11331494  0.09605835       0.000
   0.06337796  0.10977384  0.09605835       0.000
   0.06133351  0.10623275  0.09605835       0.000
   0.05928906  0.10269166  0.09605835       0.000
   0.05724461  0.09915057  0.09605835       0.000
   0.05520016  0.09560948  0.09605835       0.000
   0.05315571  0.09206839  0.09605835       0.000
   0.05111126  0.08852729  0.09605835       0.000
   0.04906681  0.08498620  0.09605835       0.000
   0.04702236  0.08144511  0.09605835       0.000
   0.04497791  0.07790402  0.09605835       0.000
   0.04293346  0.07436293  0.09605835       0.000
   0.04088901  0.07082183  0.09605835       0.000
   0.03884456  0.06728074  0.09605835       0.000
   0.03680010  0.06373965  0.09605835       0.000
   0.03475565  0.06019856  0.09605835       0.000
   0.03271120  0.05665747  0.09605835       0.000
   0.03066675  0.05311638  0.09605835       0.000
   0.02862230  0.04957528  0.09605835       0.000
   0.02657785  0.04603419  0.09605835       0.000
   0.02453340  0.04249310  0.09605835       0.000
   0.02248895  0.03895201  0.09605835       0.000
   0.02044450  0.03541092  0.09605835       0.000
   0.01840005  0.03186983  0.09605835       0.000
   0.01635560  0.02832873  0.09605835       0.000
   0.01431115  0.02478764  0.09605835       0.000
   0.01226670  0.02124655  0.09605835       0.000
   0.01022225  0.01770546  0.09605835       0.000
   0.00817780  0.01416437  0.09605835       0.000
   0.00613335  0.01062328  0.09605835       0.000
   0.00408890  0.00708218  0.09605835       0.000
   0.00204445  0.00354109  0.09605835       0.000
   0.00000000  0.00000000  0.09605835       0.000
   0.15640045  0.09029784  0.09605835       0.000
   0.15640045  0.09029784  0.09188190       0.000
   0.15640045  0.09029784  0.08770545       0.000
   0.15640045  0.09029784  0.08352900       0.000
   0.15640045  0.09029784  0.07935255       0.000
   0.15640045  0.09029784  0.07517610       0.000
   0.15640045  0.09029784  0.07099965       0.000
   0.15640045  0.09029784  0.06682320       0.000
   0.15640045  0.09029784  0.06264675       0.000
   0.15640045  0.09029784  0.05847030       0.000
   0.15640045  0.09029784  0.05429385       0.000
   0.15640045  0.09029784  0.05011740       0.000
   0.15640045  0.09029784  0.04594095       0.000
   0.15640045  0.09029784  0.04176450       0.000
   0.15640045  0.09029784  0.03758805       0.000
   0.15640045  0.09029784  0.03341160       0.000
   0.15640045  0.09029784  0.02923515       0.000
   0.15640045  0.09029784  0.02505870       0.000
   0.15640045  0.09029784  0.02088225       0.000
   0.15640045  0.09029784  0.01670580       0.000
   0.15640045  0.09029784  0.01252935       0.000
   0.15640045  0.09029784  0.00835290       0.000
   0.15640045  0.09029784  0.00417645       0.000
   0.15640045  0.09029784  0.00000000       0.000
[...]
     37      31.6202      0.00000
     38      31.8816      0.00000
     39      33.3685      0.00000
     40      33.3686      0.00000

 k-point   382 :       0.3333    0.3333    0.1304
  band No.  band energies     occupation 
      1      -9.6610      2.00000
      2      -9.6610      2.00000
      3      -8.1751      2.00000
      4      -8.0069      2.00000
      5      -8.0069      2.00000
      6      -7.9699      2.00000
      7      -7.9339      2.00000
      8      -7.9339      2.00000
      9      -7.9081      2.00000
     10      -7.8724      2.00000
     11      -6.1882      2.00000
     12      -6.1882      2.00000
     13      -0.2629      2.00000
     14      -0.2629      2.00000
     15       0.0917      2.00000
     16       2.3904      2.00000
     17       2.5528      2.00000
     18       2.5528      2.00000
     19      10.6259      0.00000
     20      12.7873      0.00000
     21      12.7873      0.00000
     22      13.5826      0.00000
     23      14.7614      0.00000
     24      14.7614      0.00000
     25      18.0663      0.00000
     26      18.0663      0.00000
     27      18.2072      0.00000
     28      22.9303      0.00000
     29      23.4841      0.00000
     30      23.4841      0.00000
     31      26.5349      0.00000
     32      27.5746      0.00000
     33      29.4534      0.00000
     34      29.4535      0.00000
     35      31.4099      0.00000
     36      31.5436      0.00000
     37      31.5436      0.00000
     38      31.7896      0.00000
     39      33.4318      0.00000
     40      33.4318      0.00000

 k-point   383 :       0.3333    0.3333    0.1087
  band No.  band energies     occupation 
      1      -9.6631      2.00000
      2      -9.6631      2.00000
      3      -8.1784      2.00000
      4      -8.0016      2.00000
      5      -8.0016      2.00000
      6      -7.9694      2.00000
      7      -7.9380      2.00000
      8      -7.9380      2.00000
      9      -7.9078      2.00000
     10      -7.8692      2.00000
     11      -6.1887      2.00000
     12      -6.1887      2.00000
     13      -0.2152      2.00000
     14      -0.2152      2.00000
     15       0.0670      2.00000
     16       2.4341      2.00000
     17       2.4769      2.00000
     18       2.4769      2.00000
     19      10.5607      0.00000
     20      12.8396      0.00000
     21      12.8396      0.00000
     22      13.5994      0.00000
     23      14.8312      0.00000
     24      14.8312      0.00000
     25      17.9662      0.00000
     26      17.9662      0.00000
     27      18.1958      0.00000
     28      23.1990      0.00000
     29      23.5129      0.00000
     30      23.5129      0.00000
     31      26.3535      0.00000
     32      27.5810      0.00000
     33      29.3827      0.00000
     34      29.3827      0.00000
     35      31.2649      0.00000
     36      31.4805      0.00000
     37      31.4805      0.00000
     38      31.7106      0.00000
     39      33.4905      0.00000
     40      33.4906      0.00000

 k-point   384 :       0.3333    0.3333    0.0870
  band No.  band energies     occupation 
      1      -9.6648      2.00000
      2      -9.6648      2.00000
      3      -8.1811      2.00000
      4      -7.9964      2.00000
      5      -7.9964      2.00000
      6      -7.9690      2.00000
      7      -7.9422      2.00000
      8      -7.9422      2.00000
      9      -7.9075      2.00000
     10      -7.8665      2.00000
     11      -6.1891      2.00000
     12      -6.1891      2.00000
     13      -0.1731      2.00000
     14      -0.1731      2.00000
     15       0.0468      2.00000
     16       2.4113      2.00000
     17       2.4113      2.00000
     18       2.4707      2.00000
     19      10.5063      0.00000
     20      12.8820      0.00000
     21      12.8820      0.00000
     22      13.6130      0.00000
     23      14.8968      0.00000
     24      14.8968      0.00000
     25      17.8763      0.00000
     26      17.8763      0.00000
     27      18.1869      0.00000
     28      23.4583      0.00000
     29      23.5383      0.00000
     30      23.5383      0.00000
     31      26.1642      0.00000
     32      27.5866      0.00000
     33      29.3198      0.00000
     34      29.3199      0.00000
     35      31.1475      0.00000
     36      31.4305      0.00000
     37      31.4305      0.00000
     38      31.6452      0.00000
     39      33.5422      0.00000
     40      33.5422      0.00000

 k-point   385 :       0.3333    0.3333    0.0652
  band No.  band energies     occupation 
      1      -9.6662      2.00000
      2      -9.6661      2.00000
      3      -8.1832      2.00000
      4      -7.9917      2.00000
      5      -7.9917      2.00000
      6      -7.9687      2.00000
      7      -7.9462      2.00000
      8      -7.9462      2.00000
      9      -7.9072      2.00000
     10      -7.8644      2.00000
     11      -6.1894      2.00000
     12      -6.1894      2.00000
     13      -0.1381      2.00000
     14      -0.1381      2.00000
     15       0.0309      2.00000
     16       2.3577      2.00000
     17       2.3577      2.00000
     18       2.4996      2.00000
     19      10.4633      0.00000
     20      12.9146      0.00000
     21      12.9147      0.00000
     22      13.6233      0.00000
     23      14.9541      0.00000
     24      14.9541      0.00000
     25      17.8005      0.00000
     26      17.8005      0.00000
     27      18.1802      0.00000
     28      23.5594      0.00000
     29      23.5594      0.00000
     30      23.6992      0.00000
     31      25.9766      0.00000
     32      27.5913      0.00000
     33      29.2677      0.00000
     34      29.2677      0.00000
     35      31.0574      0.00000
     36      31.3928      0.00000
     37      31.3928      0.00000
     38      31.5938      0.00000
     39      33.5846      0.00000
     40      33.5846      0.00000

 k-point   386 :       0.3333    0.3333    0.0435
  band No.  band energies     occupation 
      1      -9.6672      2.00000
      2      -9.6672      2.00000
      3      -8.1848      2.00000
      4      -7.9876      2.00000
      5      -7.9876      2.00000
      6      -7.9686      2.00000
      7      -7.9498      2.00000
      8      -7.9498      2.00000
      9      -7.9071      2.00000
     10      -7.8629      2.00000
     11      -6.1898      2.00000
     12      -6.1898      2.00000
     13      -0.1119      2.00000
     14      -0.1119      2.00000
     15       0.0195      2.00000
     16       2.3171      2.00000
     17       2.3171      2.00000
     18       2.5203      2.00000
     19      10.4321      0.00000
     20      12.9371      0.00000
     21      12.9371      0.00000
     22      13.6303      0.00000
     23      14.9969      0.00000
     24      14.9969      0.00000
     25      17.7426      0.00000
     26      17.7427      0.00000
     27      18.1751      0.00000
     28      23.5751      0.00000
     29      23.5752      0.00000
     30      23.9066      0.00000
     31      25.8063      0.00000
     32      27.5946      0.00000
     33      29.2286      0.00000
     34      29.2286      0.00000
     35      30.9937      0.00000
     36      31.3662      0.00000
     37      31.3662      0.00000
     38      31.5567      0.00000
     39      33.6148      0.00000
     40      33.6148      0.00000

 k-point   387 :       0.3333    0.3333    0.0217
  band No.  band energies     occupation 
      1      -9.6677      2.00000
      2      -9.6677      2.00000
      3      -8.1857      2.00000
      4      -7.9847      2.00000
      5      -7.9847      2.00000
      6      -7.9685      2.00000
      7      -7.9523      2.00000
      8      -7.9523      2.00000
      9      -7.9069      2.00000
     10      -7.8619      2.00000
     11      -6.1899      2.00000
     12      -6.1899      2.00000
     13      -0.0951      2.00000
     14      -0.0951      2.00000
     15       0.0127      2.00000
     16       2.2933      2.00000
     17       2.2933      2.00000
     18       2.5337      2.00000
     19      10.4135      0.00000
     20      12.9515      0.00000
     21      12.9516      0.00000
     22      13.6349      0.00000
     23      15.0267      0.00000
     24      15.0268      0.00000
     25      17.7063      0.00000
     26      17.7063      0.00000
     27      18.1733      0.00000
     28      23.5850      0.00000
     29      23.5850      0.00000
     30      24.0549      0.00000
     31      25.6802      0.00000
     32      27.5969      0.00000
     33      29.2045      0.00000
     34      29.2046      0.00000
     35      30.9559      0.00000
     36      31.3516      0.00000
     37      31.3516      0.00000
     38      31.5355      0.00000
     39      33.6360      0.00000
     40      33.6361      0.00000

 k-point   388 :       0.3333    0.3333    0.0000
  band No.  band energies     occupation 
      1      -9.6678      2.00000
      2      -9.6678      2.00000
      3      -8.1859      2.00000
      4      -7.9835      2.00000
      5      -7.9835      2.00000
      6      -7.9684      2.00000
      7      -7.9532      2.00000
      8      -7.9532      2.00000
      9      -7.9069      2.00000
     10      -7.8616      2.00000
     11      -6.1899      2.00000
     12      -6.1899      2.00000
     13      -0.0894      2.00000
     14      -0.0894      2.00000
     15       0.0105      2.00000
     16       2.2864      2.00000
     17       2.2864      2.00000
     18       2.5382      2.00000
     19      10.4072      0.00000
     20      12.9565      0.00000
     21      12.9565      0.00000
     22      13.6363      0.00000
     23      15.0386      0.00000
     24      15.0386      0.00000
     25      17.6939      0.00000
     26      17.6939      0.00000
     27      18.1726      0.00000
     28      23.5884      0.00000
     29      23.5884      0.00000
     30      24.1104      0.00000
     31      25.6321      0.00000
     32      27.5977      0.00000
     33      29.1964      0.00000
     34      29.1964      0.00000
     35      30.9434      0.00000
     36      31.3467      0.00000
     37      31.3467      0.00000
     38      31.5282      0.00000
     39      33.6454      0.00000
     40      33.6454      0.00000


--------------------------------------------------------------------------------------------------------


 soft charge-density along one line, spin component           1
         0         1         2         3         4         5         6         7         8         9
 total charge-density along one line
 
 pseudopotential strength for first ion, spin component:           1
-11.410  -0.000   0.000   0.000  -0.000   0.452   0.000  -0.000
 -0.000 -11.413  -0.000  -0.000   0.000   0.000   0.454   0.000
  0.000  -0.000 -11.413   0.000  -0.000  -0.000   0.000   0.454
  0.000  -0.000   0.000 -11.413  -0.000   0.000   0.000  -0.000
 -0.000   0.000  -0.000  -0.000 -11.410   0.000   0.000   0.000
  0.452   0.000  -0.000   0.000   0.000   4.892   0.000   0.000
  0.000   0.454   0.000   0.000   0.000   0.000   4.890   0.000
 -0.000   0.000   0.454  -0.000   0.000   0.000   0.000   4.892
  0.000   0.000  -0.000   0.454   0.000   0.002  -0.000  -0.000
  0.000   0.000   0.000   0.000   0.452   0.000   0.002  -0.000
 -0.000   0.000   0.000  -0.000   0.000   0.000  -0.000   0.000
  0.000  -0.000   0.000   0.000  -0.000  -0.000   0.000   0.000
  0.000  -0.000   0.000   0.000   0.000  -0.000   0.003  -0.000
  0.000   0.000  -0.000   0.000  -0.000  -0.000  -0.000  -0.005
  0.000   0.000   0.000  -0.000  -0.000   0.004  -0.000  -0.000
 -0.000   0.008  -0.000  -0.000   0.010   0.000  -0.003   0.000
 -0.000  -0.000  -0.013  -0.000   0.000   0.000  -0.000   0.005
  0.010  -0.000  -0.000   0.008   0.000  -0.004   0.000   0.000
 total augmentation occupancy for first ion, spin component:           1
  2.013   0.000   0.000   0.002  -0.000   0.035   0.000   0.000   0.010  -0.000  -0.000  -0.000  -0.000   0.000  -0.018  -0.000
  0.000   2.010   0.000  -0.000   0.002   0.000   0.026   0.000  -0.000   0.010   0.000   0.000  -0.012   0.000   0.000  -0.002
  0.000   0.000   2.014   0.000   0.000   0.000   0.000   0.041   0.000   0.000  -0.001  -0.000  -0.000   0.022  -0.000  -0.000
  0.002  -0.000   0.000   2.010  -0.000   0.010  -0.000   0.000   0.026  -0.000   0.000   0.000   0.000   0.000  -0.012   0.000
 -0.000   0.002   0.000  -0.000   2.013  -0.000   0.010   0.000  -0.000   0.035  -0.000  -0.000  -0.018   0.000   0.000  -0.003
  0.035   0.000   0.000   0.010   0.000   0.093   0.000   0.000   0.035  -0.000  -0.000  -0.000  -0.000   0.000  -0.203  -0.000
  0.000   0.026   0.000  -0.000   0.010   0.000   0.065   0.000  -0.000   0.035   0.000  -0.000  -0.139   0.000   0.000  -0.003
  0.000   0.000   0.041   0.000   0.000   0.000   0.000   0.118   0.000   0.000  -0.007  -0.000  -0.000   0.244  -0.000  -0.000
  0.010  -0.000   0.000   0.026  -0.000   0.035  -0.000   0.000   0.065  -0.000  -0.000  -0.000   0.000  -0.000  -0.139   0.000
 -0.000   0.010   0.000  -0.000   0.035  -0.000   0.035   0.000  -0.000   0.093  -0.000  -0.000  -0.203   0.000   0.000  -0.005
 -0.000   0.000  -0.001   0.000  -0.000  -0.000  -0.000  -0.007  -0.000  -0.000   1.320   0.039  -0.000   0.002   0.000   0.000
 -0.000   0.000  -0.000   0.000  -0.000  -0.000  -0.000  -0.000  -0.000  -0.000   0.039   0.002  -0.000   0.000   0.000   0.000
 -0.000  -0.012  -0.000   0.000  -0.018  -0.000  -0.139  -0.000   0.000  -0.203   0.000   0.000   1.052  -0.000  -0.000   0.023
  0.000   0.000   0.022   0.000   0.000   0.000  -0.000   0.244  -0.000   0.000   0.002   0.000   0.000   1.033   0.000  -0.000
 -0.018   0.000  -0.000  -0.012   0.000  -0.203   0.000  -0.000  -0.139   0.000   0.000  -0.000  -0.000   0.000   1.052  -0.000
 -0.000  -0.002  -0.000   0.000  -0.003  -0.000  -0.003  -0.000   0.000  -0.005  -0.000   0.000   0.023  -0.000  -0.000   0.001
  0.000  -0.000   0.004  -0.000   0.000   0.000   0.000   0.006  -0.000   0.000   0.000  -0.000   0.000   0.023  -0.000   0.000
 -0.003   0.000  -0.000  -0.002   0.000  -0.005   0.000  -0.000  -0.003   0.000   0.000   0.000  -0.000  -0.000   0.023  -0.000


------------------------ aborting loop because EDIFF is reached ----------------------------------------





 total charge

# of ion       s       p       d       tot
------------------------------------------
    1        0.786   0.888  10.175  11.848
    2        0.786   0.888  10.175  11.848
    3        1.238   2.468   0.000   3.705
    4        1.238   2.468   0.000   3.705
--------------------------------------------------
tot          4.047   6.710  20.350  31.108
 
    CHARGE:  cpu time      0.0047: real time      0.0047
    FORLOC:  cpu time      0.0003: real time      0.0003
    FORNL :  cpu time      0.0757: real time      0.0760
    FORCOR:  cpu time      0.1236: real time      0.1240
    FORHAR:  cpu time      0.0007: real time      0.0007
    MIXING:  cpu time      0.0003: real time      0.0003
    OFIELD:  cpu time      0.0001: real time      0.0001

 VOLUME and BASIS-vectors are now :
 -----------------------------------------------------------------------------
  energy-cutoff  :      400.00
  volume of cell :       46.07
      direct lattice vectors                 reciprocal lattice vectors
     3.196921834  0.000000000  0.000000000     0.312800892  0.180595679  0.000000000
    -1.598460917  2.768615522  0.000000000     0.000000000  0.361191358  0.000000000
     0.000000000  0.000000000  5.205169397     0.000000000  0.000000000  0.192116706

  length of vectors
     3.196921834  3.196921834  5.205169397     0.361191358  0.361191358  0.192116706


 FORCES acting on ions
    electron-ion (+dipol)            ewald-force                    non-local-force                 convergence-correction
 -----------------------------------------------------------------------------------------------
   -.825E-04 -.749E-04 -.374E+01   0.916E-07 -.475E-07 0.372E+01   0.490E-16 0.188E-17 0.137E-01   0.103E-06 -.544E-07 -.638E-04
   -.237E-04 -.109E-03 -.374E+01   -.916E-07 0.475E-07 0.372E+01   -.922E-16 -.352E-17 0.137E-01   -.984E-07 0.617E-07 -.638E-04
   -.279E-04 0.239E-04 0.349E+01   0.819E-07 -.428E-07 -.372E+01   0.322E-17 0.118E-17 0.241E+00   -.167E-07 0.966E-08 0.160E-03
   0.346E-04 -.122E-04 0.349E+01   -.819E-07 0.428E-07 -.372E+01   -.345E-17 -.563E-17 0.241E+00   0.167E-07 -.967E-08 0.160E-03
 -----------------------------------------------------------------------------------------------
   -.995E-04 -.172E-03 -.504E+00   -.867E-14 0.193E-14 0.178E-14   -.434E-16 -.609E-17 0.509E+00   0.423E-08 0.733E-08 0.193E-03
 
 
 POSITION                                       TOTAL-FORCE (eV/Angst)
 -----------------------------------------------------------------------------------
     -0.00000      1.84574      5.20068        -0.000000     -0.000000     -0.000486
      1.59846      0.92287      2.59809        -0.000000     -0.000000     -0.000486
     -0.00000      1.84574      1.95643         0.000000     -0.000000      0.000486
      1.59846      0.92287      4.55901        -0.000000      0.000000      0.000486
 -----------------------------------------------------------------------------------
    total drift:                               -0.000099     -0.000172      0.005435


--------------------------------------------------------------------------------------------------------



  FREE ENERGIE OF THE ION-ELECTRON SYSTEM (eV)
  ---------------------------------------------------
  free  energy   TOTEN  =       -24.31983967 eV

  energy  without entropy=      -24.31983967  energy(sigma->0) =      -24.31983967
 


--------------------------------------------------------------------------------------------------------


    POTLOK:  cpu time      0.1253: real time      0.1258


--------------------------------------------------------------------------------------------------------


 stress matrix after NEB project (eV)
      0.00000      0.00000      0.00000
      0.00000      0.00000      0.00000
      0.00000      0.00000      0.00000
  FORCES: max atom, RMS     0.000486    0.000486
  FORCE total and by dimension    0.000973    0.000486
  Stress total and by dimension    0.000000    0.000000


--------------------------------------------------------------------------------------------------------


  
 reached required accuracy - stopping structural energy minimisation
     LOOP+:  cpu time     12.1838: real time     12.3268
    4ORBIT:  cpu time      0.0000: real time      0.0000



 total charge

# of ion       s       p       d       tot
------------------------------------------
    1        0.786   0.888  10.175  11.848
    2        0.786   0.888  10.175  11.848
    3        1.238   2.468   0.000   3.705
    4        1.238   2.468   0.000   3.705
--------------------------------------------------
tot          4.047   6.710  20.350  31.108
 

 total amount of memory used by VASP MPI-rank0   156196. kBytes
=======================================================================

   base      :      30000. kBytes
   nonl-proj :      96602. kBytes
   fftplans  :        274. kBytes
   grid      :        702. kBytes
   one-center:         62. kBytes
   wavefun   :      28556. kBytes
 
  
  
 General timing and accounting informations for this job:
 ========================================================
  
                  Total CPU time used (sec):       14.023
                            User time (sec):       13.427
                          System time (sec):        0.595
                         Elapsed time (sec):       15.170
  
                   Maximum memory used (kb):      388328.
                   Average memory used (kb):          N/A
  
                          Minor page faults:        79983
                          Major page faults:           74
                 Voluntary context switches:         2833
