PROCAR new format
# of k-points:  388         # of bands:   40         # of ions:    4

 k-point     1 :    0.00000000 0.00000000 0.06250000     weight = 0.00173611

band     1 # energy  -10.67541189 # occ.  2.00000000
 
ion      s      p      d    tot
    1  0.112  0.000  0.001  0.113
    2  0.112  0.000  0.001  0.113
    3  0.226  0.000  0.000  0.226
    4  0.226  0.000  0.000  0.226
tot    0.675  0.000  0.001  0.677
 
band     2 # energy   -9.79487902 # occ.  2.00000000
 
ion      s      p      d    tot
    1  0.022  0.013  0.206  0.241
    2  0.022  0.013  0.206  0.241
    3  0.179  0.000  0.000  0.179
    4  0.179  0.000  0.000  0.179
tot    0.402  0.027  0.411  0.840
 
band     3 # energy   -8.19679975 # occ.  2.00000000
 
ion      s      p      d    tot
    1  0.000  0.000  0.483  0.483
    2  0.000  0.000  0.483  0.483
    3  0.000  0.008  0.000  0.008
    4  0.000  0.008  0.000  0.008
tot    0.001  0.016  0.966  0.983
 
band     4 # energy   -8.18454569 # occ.  2.00000000
 
ion      s      p      d    tot
    1  0.000  0.000  0.484  0.484
    2  0.000  0.000  0.484  0.484
    3  0.000  0.008  0.000  0.008
    4  0.000  0.008  0.000  0.008
tot    0.000  0.017  0.967  0.984
 
band     5 # energy   -8.18454353 # occ.  2.00000000
 
ion      s      p      d    tot
    1  0.000  0.000  0.484  0.484
    2  0.000  0.000  0.484  0.484
    3  0.000  0.008  0.000  0.008
    4  0.000  0.008  0.000  0.008
tot    0.000  0.017  0.967  0.984
 
band     6 # energy   -8.12581664 # occ.  2.00000000
 
ion      s      p      d    tot
    1  0.000  0.000  0.486  0.486
    2  0.000  0.000  0.486  0.486
    3  0.000  0.006  0.000  0.006
    4  0.000  0.006  0.000  0.006
tot    0.000  0.013  0.972  0.986
 
band     7 # energy   -8.12581112 # occ.  2.00000000
 
ion      s      p      d    tot
    1  0.000  0.000  0.486  0.486
    2  0.000  0.000  0.486  0.486
    3  0.000  0.006  0.000  0.006
    4  0.000  0.006  0.000  0.006
tot    0.000  0.013  0.972  0.986
 
band     8 # energy   -7.93672245 # occ.  2.00000000
 
ion      s      p      d    tot
    1  0.000  0.000  0.494  0.494
    2  0.000  0.000  0.494  0.494
    3  0.000  0.000  0.000  0.000
    4  0.000  0.000  0.000  0.000
tot    0.000  0.000  0.989  0.989
 
band     9 # energy   -7.93672238 # occ.  2.00000000
 
ion      s      p      d    tot
    1  0.000  0.000  0.494  0.494
    2  0.000  0.000  0.494  0.494
    3  0.000  0.000  0.000  0.000
    4  0.000  0.000  0.000  0.000
tot    0.000  0.000  0.989  0.989
 
band    10 # energy   -7.84306150 # occ.  2.00000000
 
ion      s      p      d    tot
    1  0.000  0.000  0.497  0.497
    2  0.000  0.000  0.497  0.497
    3  0.000  0.000  0.000  0.000
    4  0.000  0.000  0.000  0.000
tot    0.000  0.000  0.994  0.994
 
band    11 # energy   -7.84305985 # occ.  2.00000000
 
ion      s      p      d    tot
    1  0.000  0.000  0.497  0.497
    2  0.000  0.000  0.497  0.497
    3  0.000  0.000  0.000  0.000
    4  0.000  0.000  0.000  0.000
tot    0.000  0.000  0.994  0.994
 
band    12 # energy   -6.65671854 # occ.  2.00000000
 
ion      s      p      d    tot
    1  0.019  0.016  0.299  0.334
    2  0.019  0.016  0.299  0.334
    3  0.110  0.001  0.000  0.111
    4  0.110  0.001  0.000  0.111
tot    0.257  0.034  0.598  0.889
 
band    13 # energy   -1.69387099 # occ.  2.00000000
 
ion      s      p      d    tot
    1  0.120  0.054  0.004  0.179
    2  0.120  0.054  0.004  0.179
    3  0.004  0.126  0.000  0.130
    4  0.004  0.126  0.000  0.130
tot    0.249  0.359  0.008  0.617
 
band    14 # energy    4.21583707 # occ.  2.00000000
 
ion      s      p      d    tot
    1  0.000  0.068  0.040  0.108
    2  0.000  0.068  0.040  0.108
    3  0.000  0.270  0.000  0.270
    4  0.000  0.270  0.000  0.270
tot    0.000  0.675  0.079  0.755
 
band    15 # energy    4.21635124 # occ.  2.00000000
 
ion      s      p      d    tot
    1  0.000  0.068  0.040  0.108
    2  0.000  0.068  0.040  0.108
    3  0.000  0.270  0.000  0.270
    4  0.000  0.270  0.000  0.270
tot    0.000  0.675  0.079  0.754
 
band    16 # energy    5.05248962 # occ.  2.00000000
 
ion      s      p      d    tot
    1  0.010  0.024  0.058  0.091
    2  0.010  0.024  0.058  0.091
    3  0.012  0.277  0.000  0.289
    4  0.012  0.277  0.000  0.289
tot    0.043  0.602  0.115  0.760
 
band    17 # energy    5.22297704 # occ.  2.00000000
 
ion      s      p      d    tot
    1  0.000  0.022  0.064  0.086
    2  0.000  0.022  0.064  0.086
    3  0.000  0.301  0.000  0.301
    4  0.000  0.301  0.000  0.301
tot    0.000  0.646  0.128  0.774
 
band    18 # energy    5.22356072 # occ.  2.00000000
 
ion      s      p      d    tot
    1  0.000  0.022  0.064  0.086
    2  0.000  0.022  0.064  0.086
    3  0.000  0.301  0.000  0.301
    4  0.000  0.301  0.000  0.301
tot    0.000  0.646  0.128  0.774
 
band    19 # energy    7.21036277 # occ.  0.00000000
 
ion      s      p      d    tot
    1  0.124  0.002  0.002  0.128
    2  0.124  0.002  0.002  0.128
    3  0.169  0.021  0.000  0.190
    4  0.169  0.021  0.000  0.190
tot    0.586  0.046  0.005  0.637
 
band    20 # energy    9.42973360 # occ.  0.00000000
 
ion      s      p      d    tot
    1  0.187  0.038  0.012  0.237
    2  0.187  0.038  0.012  0.237
    3  0.084  0.011  0.000  0.095
    4  0.084  0.011  0.000  0.095
tot    0.541  0.099  0.024  0.664
 
band    21 # energy   14.36316354 # occ.  0.00000000
 
ion      s      p      d    tot
    1  0.011  0.026  0.022  0.060
    2  0.011  0.026  0.022  0.060
    3  0.002  0.233  0.000  0.235
    4  0.002  0.233  0.000  0.235
tot    0.026  0.518  0.045  0.589
 
band    22 # energy   15.07691678 # occ.  0.00000000
 
ion      s      p      d    tot
    1  0.000  0.335  0.019  0.354
    2  0.000  0.335  0.019  0.354
    3  0.000  0.000  0.000  0.000
    4  0.000  0.000  0.000  0.000
tot    0.000  0.670  0.038  0.708
 
band    23 # energy   15.07693425 # occ.  0.00000000
 
ion      s      p      d    tot
    1  0.000  0.335  0.019  0.354
    2  0.000  0.335  0.019  0.354
    3  0.000  0.000  0.000  0.000
    4  0.000  0.000  0.000  0.000
tot    0.000  0.670  0.038  0.708
 
band    24 # energy   15.79372433 # occ.  0.00000000
 
ion      s      p      d    tot
    1  0.004  0.351  0.003  0.357
    2  0.004  0.351  0.003  0.357
    3  0.001  0.005  0.000  0.006
    4  0.001  0.005  0.000  0.006
tot    0.009  0.712  0.005  0.726
 
band    25 # energy   16.83521538 # occ.  0.00000000
 
ion      s      p      d    tot
    1  0.000  0.299  0.026  0.325
    2  0.000  0.299  0.026  0.325
    3  0.000  0.036  0.000  0.036
    4  0.000  0.036  0.000  0.036
tot    0.000  0.671  0.052  0.723
 
band    26 # energy   16.83536543 # occ.  0.00000000
 
ion      s      p      d    tot
    1  0.000  0.299  0.026  0.325
    2  0.000  0.299  0.026  0.325
    3  0.000  0.036  0.000  0.036
    4  0.000  0.036  0.000  0.036
tot    0.000  0.671  0.052  0.723
 
band    27 # energy   19.83426740 # occ.  0.00000000
 
ion      s      p      d    tot
    1  0.042  0.018  0.060  0.120
    2  0.042  0.018  0.060  0.120
    3  0.003  0.000  0.000  0.003
    4  0.003  0.000  0.000  0.003
tot    0.089  0.037  0.120  0.246
 
band    28 # energy   20.94678282 # occ.  0.00000000
 
ion      s      p      d    tot
    1  0.000  0.040  0.170  0.210
    2  0.000  0.040  0.170  0.210
    3  0.000  0.003  0.000  0.003
    4  0.000  0.003  0.000  0.003
tot    0.000  0.086  0.340  0.426
 
band    29 # energy   20.94683207 # occ.  0.00000000
 
ion      s      p      d    tot
    1  0.000  0.040  0.170  0.210
    2  0.000  0.040  0.170  0.210
    3  0.000  0.003  0.000  0.003
    4  0.000  0.003  0.000  0.003
tot    0.000  0.086  0.340  0.426
 
band    30 # energy   23.18636068 # occ.  0.00000000
 
ion      s      p      d    tot
    1  0.000  0.008  0.116  0.124
    2  0.000  0.008  0.116  0.124
    3  0.000  0.002  0.000  0.002
    4  0.000  0.002  0.000  0.002
tot    0.000  0.021  0.231  0.252
 
band    31 # energy   23.18644710 # occ.  0.00000000
 
ion      s      p      d    tot
    1  0.000  0.008  0.116  0.124
    2  0.000  0.008  0.116  0.124
    3  0.000  0.002  0.000  0.002
    4  0.000  0.002  0.000  0.002
tot    0.000  0.021  0.231  0.252
 
band    32 # energy   23.31024442 # occ.  0.00000000
 
ion      s      p      d    tot
    1  0.075  0.007  0.048  0.129
    2  0.075  0.007  0.048  0.129
    3  0.011  0.004  0.000  0.014
    4  0.011  0.004  0.000  0.014
tot    0.170  0.021  0.096  0.288
 
band    33 # energy   23.50406454 # occ.  0.00000000
 
ion      s      p      d    tot
    1  0.208  0.012  0.019  0.239
    2  0.208  0.012  0.019  0.239
    3  0.001  0.003  0.000  0.004
    4  0.001  0.003  0.000  0.004
tot    0.418  0.031  0.038  0.488
 
band    34 # energy   26.79749345 # occ.  0.00000000
 
ion      s      p      d    tot
    1  0.047  0.117  0.007  0.171
    2  0.047  0.117  0.007  0.171
    3  0.004  0.030  0.000  0.034
    4  0.004  0.030  0.000  0.034
tot    0.101  0.294  0.014  0.410
 
band    35 # energy   29.39527229 # occ.  0.00000000
 
ion      s      p      d    tot
    1  0.000  0.016  0.215  0.232
    2  0.000  0.016  0.215  0.232
    3  0.000  0.076  0.000  0.076
    4  0.000  0.076  0.000  0.076
tot    0.000  0.185  0.431  0.616
 
band    36 # energy   29.39573527 # occ.  0.00000000
 
ion      s      p      d    tot
    1  0.000  0.016  0.215  0.232
    2  0.000  0.016  0.215  0.232
    3  0.000  0.076  0.000  0.076
    4  0.000  0.076  0.000  0.076
tot    0.000  0.185  0.431  0.616
 
band    37 # energy   31.89996365 # occ.  0.00000000
 
ion      s      p      d    tot
    1  0.005  0.174  0.022  0.201
    2  0.005  0.174  0.022  0.201
    3  0.046  0.006  0.000  0.052
    4  0.046  0.006  0.000  0.052
tot    0.101  0.360  0.045  0.505
 
band    38 # energy   33.34356638 # occ.  0.00000000
 
ion      s      p      d    tot
    1  0.000  0.034  0.197  0.231
    2  0.000  0.034  0.197  0.231
    3  0.000  0.078  0.000  0.078
    4  0.000  0.078  0.000  0.078
tot    0.000  0.224  0.395  0.619
 
band    39 # energy   33.34411983 # occ.  0.00000000
 
ion      s      p      d    tot
    1  0.000  0.034  0.197  0.231
    2  0.000  0.034  0.197  0.231
    3  0.000  0.078  0.000  0.078
    4  0.000  0.078  0.000  0.078
tot    0.000  0.224  0.395  0.619
 
band    40 # energy   34.14455888 # occ.  0.00000000
 
ion      s      p      d    tot
    1  0.016  0.044  0.032  0.093
    2  0.016  0.044  0.032  0.093
    3  0.003  0.082  0.000  0.085
    4  0.003  0.082  0.000  0.085
tot    0.038  0.252  0.065  0.355
 

 k-point     2 :    0.08333333 0.00000000 0.06250000     weight = 0.01041667

band     1 # energy  -10.60845680 # occ.  2.00000000
 
ion      s      p      d    tot
    1  0.108  0.002  0.006  0.115
    2  0.108  0.002  0.006  0.115
    3  0.226  0.000  0.000  0.226
    4  0.226  0.000  0.000  0.226
tot    0.667  0.003  0.012  0.682
 
band     2 # energy   -9.77712979 # occ.  2.00000000
 
ion      s      p      d    tot
    1  0.020  0.014  0.210  0.244
    2  0.020  0.014  0.210  0.244
    3  0.177  0.000  0.000  0.177
    4  0.177  0.000  0.000  0.177
tot    0.394  0.028  0.421  0.843
 
band     3 # energy   -8.19215178 # occ.  2.00000000
 
ion      s      p      d    tot
    1  0.000  0.000  0.495  0.495
    2  0.000  0.000  0.472  0.472
    3  0.000  0.008  0.000  0.008
    4  0.000  0.008  0.000  0.008
tot    0.001  0.016  0.966  0.983
 
band     4 # energy   -8.17454239 # occ.  2.00000000
 
ion      s      p      d    tot
    1  0.000  0.000  0.479  0.480
    2  0.000  0.000  0.488  0.488
    3  0.000  0.008  0.000  0.008
    4  0.000  0.008  0.000  0.008
tot    0.000  0.017  0.968  0.984
 
band     5 # energy   -8.16042509 # occ.  2.00000000
 
ion      s      p      d    tot
    1  0.002  0.000  0.463  0.465
    2  0.002  0.000  0.494  0.496
    3  0.001  0.009  0.000  0.010
    4  0.001  0.008  0.000  0.009
tot    0.006  0.017  0.957  0.980
 
band     6 # energy   -8.11834237 # occ.  2.00000000
 
ion      s      p      d    tot
    1  0.000  0.000  0.486  0.487
    2  0.000  0.000  0.486  0.486
    3  0.000  0.006  0.000  0.006
    4  0.000  0.006  0.000  0.006
tot    0.000  0.013  0.972  0.985
 
band     7 # energy   -8.11249548 # occ.  2.00000000
 
ion      s      p      d    tot
    1  0.000  0.000  0.494  0.495
    2  0.000  0.000  0.479  0.479
    3  0.000  0.006  0.000  0.006
    4  0.000  0.006  0.000  0.006
tot    0.000  0.013  0.973  0.986
 
band     8 # energy   -7.94196133 # occ.  2.00000000
 
ion      s      p      d    tot
    1  0.000  0.000  0.503  0.503
    2  0.000  0.000  0.485  0.485
    3  0.000  0.000  0.000  0.000
    4  0.000  0.000  0.000  0.000
tot    0.000  0.000  0.988  0.989
 
band     9 # energy   -7.93740479 # occ.  2.00000000
 
ion      s      p      d    tot
    1  0.000  0.000  0.488  0.488
    2  0.000  0.000  0.501  0.501
    3  0.000  0.000  0.000  0.000
    4  0.000  0.000  0.000  0.000
tot    0.000  0.000  0.989  0.989
 
band    10 # energy   -7.85477115 # occ.  2.00000000
 
ion      s      p      d    tot
    1  0.000  0.000  0.491  0.491
    2  0.000  0.000  0.501  0.501
    3  0.000  0.000  0.000  0.000
    4  0.000  0.000  0.000  0.000
tot    0.000  0.000  0.992  0.992
 
band    11 # energy   -7.84159152 # occ.  2.00000000
 
ion      s      p      d    tot
    1  0.000  0.000  0.500  0.500
    2  0.000  0.000  0.494  0.494
    3  0.000  0.000  0.000  0.000
    4  0.000  0.000  0.000  0.000
tot    0.000  0.000  0.994  0.994
 
band    12 # energy   -6.60809879 # occ.  2.00000000
 
ion      s      p      d    tot
    1  0.019  0.016  0.295  0.330
    2  0.019  0.016  0.295  0.330
    3  0.113  0.001  0.000  0.114
    4  0.113  0.001  0.000  0.114
tot    0.263  0.035  0.591  0.889
 
band    13 # energy   -1.59802419 # occ.  2.00000000
 
ion      s      p      d    tot
    1  0.121  0.054  0.004  0.179
    2  0.121  0.054  0.004  0.179
    3  0.004  0.127  0.000  0.131
    4  0.004  0.127  0.000  0.131
tot    0.251  0.361  0.009  0.621
 
band    14 # energy    3.70498960 # occ.  2.00000000
 
ion      s      p      d    tot
    1  0.017  0.069  0.037  0.123
    2  0.016  0.068  0.037  0.120
    3  0.006  0.238  0.000  0.243
    4  0.006  0.242  0.000  0.248
tot    0.045  0.617  0.074  0.735
 
band    15 # energy    4.07182735 # occ.  2.00000000
 
ion      s      p      d    tot
    1  0.000  0.072  0.038  0.110
    2  0.000  0.072  0.037  0.110
    3  0.000  0.265  0.000  0.265
    4  0.000  0.264  0.000  0.264
tot    0.000  0.673  0.075  0.748
 
band    16 # energy    4.51716029 # occ.  2.00000000
 
ion      s      p      d    tot
    1  0.032  0.019  0.054  0.105
    2  0.034  0.020  0.057  0.111
    3  0.039  0.236  0.000  0.275
    4  0.038  0.222  0.000  0.261
tot    0.144  0.497  0.111  0.752
 
band    17 # energy    5.10543865 # occ.  2.00000000
 
ion      s      p      d    tot
    1  0.000  0.028  0.060  0.089
    2  0.000  0.030  0.057  0.086
    3  0.000  0.290  0.000  0.290
    4  0.000  0.300  0.000  0.300
tot    0.000  0.649  0.117  0.766
 
band    18 # energy    5.16219505 # occ.  2.00000000
 
ion      s      p      d    tot
    1  0.000  0.026  0.062  0.088
    2  0.000  0.026  0.062  0.088
    3  0.000  0.298  0.000  0.298
    4  0.000  0.299  0.000  0.299
tot    0.000  0.649  0.124  0.773
 
band    19 # energy    7.74799982 # occ.  0.00000000
 
ion      s      p      d    tot
    1  0.102  0.011  0.006  0.118
    2  0.101  0.010  0.006  0.117
    3  0.139  0.070  0.000  0.209
    4  0.139  0.069  0.000  0.209
tot    0.481  0.160  0.011  0.653
 
band    20 # energy    9.86777297 # occ.  0.00000000
 
ion      s      p      d    tot
    1  0.174  0.040  0.012  0.225
    2  0.173  0.040  0.012  0.226
    3  0.074  0.039  0.000  0.113
    4  0.074  0.039  0.000  0.112
tot    0.494  0.158  0.024  0.676
 
band    21 # energy   14.17355725 # occ.  0.00000000
 
ion      s      p      d    tot
    1  0.014  0.069  0.026  0.109
    2  0.006  0.051  0.028  0.086
    3  0.001  0.192  0.000  0.193
    4  0.001  0.197  0.000  0.198
tot    0.023  0.508  0.054  0.585
 
band    22 # energy   14.58447511 # occ.  0.00000000
 
ion      s      p      d    tot
    1  0.022  0.231  0.026  0.279
    2  0.031  0.254  0.023  0.308
    3  0.000  0.033  0.000  0.033
    4  0.001  0.031  0.000  0.032
tot    0.054  0.549  0.048  0.651
 
band    23 # energy   15.25793302 # occ.  0.00000000
 
ion      s      p      d    tot
    1  0.000  0.335  0.017  0.352
    2  0.000  0.336  0.018  0.354
    3  0.000  0.007  0.000  0.007
    4  0.000  0.003  0.000  0.003
tot    0.000  0.681  0.035  0.716
 
band    24 # energy   15.88210893 # occ.  0.00000000
 
ion      s      p      d    tot
    1  0.001  0.346  0.008  0.355
    2  0.006  0.343  0.006  0.356
    3  0.001  0.012  0.000  0.013
    4  0.001  0.006  0.000  0.007
tot    0.008  0.708  0.015  0.731
 
band    25 # energy   16.50293313 # occ.  0.00000000
 
ion      s      p      d    tot
    1  0.016  0.267  0.020  0.303
    2  0.010  0.252  0.026  0.288
    3  0.004  0.042  0.000  0.046
    4  0.004  0.044  0.000  0.048
tot    0.034  0.606  0.046  0.686
 
band    26 # energy   16.98984645 # occ.  0.00000000
 
ion      s      p      d    tot
    1  0.000  0.288  0.029  0.318
    2  0.000  0.294  0.025  0.319
    3  0.000  0.042  0.000  0.042
    4  0.000  0.046  0.000  0.046
tot    0.000  0.670  0.054  0.725
 
band    27 # energy   19.24591232 # occ.  0.00000000
 
ion      s      p      d    tot
    1  0.001  0.047  0.112  0.160
    2  0.001  0.078  0.107  0.185
    3  0.001  0.002  0.000  0.004
    4  0.001  0.004  0.000  0.004
tot    0.004  0.130  0.219  0.353
 
band    28 # energy   20.55956066 # occ.  0.00000000
 
ion      s      p      d    tot
    1  0.000  0.035  0.161  0.196
    2  0.000  0.013  0.167  0.180
    3  0.000  0.001  0.000  0.001
    4  0.000  0.002  0.000  0.002
tot    0.000  0.051  0.328  0.379
 
band    29 # energy   21.55198770 # occ.  0.00000000
 
ion      s      p      d    tot
    1  0.027  0.024  0.099  0.150
    2  0.027  0.017  0.100  0.144
    3  0.001  0.006  0.000  0.006
    4  0.002  0.003  0.000  0.005
tot    0.057  0.049  0.199  0.305
 
band    30 # energy   22.96199024 # occ.  0.00000000
 
ion      s      p      d    tot
    1  0.058  0.051  0.078  0.187
    2  0.070  0.019  0.076  0.165
    3  0.002  0.007  0.000  0.010
    4  0.001  0.007  0.000  0.008
tot    0.131  0.085  0.153  0.369
 
band    31 # energy   24.00565362 # occ.  0.00000000
 
ion      s      p      d    tot
    1  0.000  0.013  0.122  0.136
    2  0.000  0.031  0.124  0.154
    3  0.000  0.004  0.000  0.004
    4  0.000  0.002  0.000  0.002
tot    0.000  0.050  0.246  0.296
 
band    32 # energy   24.05633664 # occ.  0.00000000
 
ion      s      p      d    tot
    1  0.133  0.041  0.036  0.209
    2  0.071  0.044  0.049  0.164
    3  0.004  0.006  0.000  0.010
    4  0.003  0.017  0.000  0.020
tot    0.212  0.108  0.085  0.404
 
band    33 # energy   24.36009130 # occ.  0.00000000
 
ion      s      p      d    tot
    1  0.076  0.028  0.066  0.170
    2  0.128  0.050  0.047  0.224
    3  0.002  0.017  0.000  0.019
    4  0.005  0.010  0.000  0.014
tot    0.210  0.104  0.113  0.427
 
band    34 # energy   27.45072232 # occ.  0.00000000
 
ion      s      p      d    tot
    1  0.029  0.129  0.052  0.209
    2  0.026  0.118  0.058  0.202
    3  0.009  0.020  0.000  0.029
    4  0.008  0.019  0.000  0.027
tot    0.072  0.286  0.110  0.468
 
band    35 # energy   28.89296721 # occ.  0.00000000
 
ion      s      p      d    tot
    1  0.004  0.018  0.153  0.175
    2  0.006  0.013  0.164  0.183
    3  0.011  0.046  0.000  0.056
    4  0.011  0.048  0.000  0.059
tot    0.031  0.126  0.317  0.474
 
band    36 # energy   29.34123830 # occ.  0.00000000
 
ion      s      p      d    tot
    1  0.000  0.011  0.222  0.233
    2  0.000  0.021  0.211  0.231
    3  0.000  0.071  0.000  0.071
    4  0.000  0.068  0.000  0.068
tot    0.000  0.171  0.433  0.603
 
band    37 # energy   32.27954062 # occ.  0.00000000
 
ion      s      p      d    tot
    1  0.011  0.114  0.066  0.191
    2  0.000  0.118  0.078  0.197
    3  0.022  0.014  0.000  0.035
    4  0.022  0.026  0.000  0.048
tot    0.055  0.272  0.145  0.471
 
band    38 # energy   32.88550333 # occ.  0.00000000
 
ion      s      p      d    tot
    1  0.001  0.077  0.135  0.214
    2  0.010  0.055  0.093  0.158
    3  0.008  0.077  0.000  0.085
    4  0.013  0.047  0.000  0.060
tot    0.032  0.256  0.228  0.517
 
band    39 # energy   33.32445837 # occ.  0.00000000
 
ion      s      p      d    tot
    1  0.000  0.027  0.097  0.123
    2  0.000  0.080  0.159  0.239
    3  0.000  0.047  0.000  0.047
    4  0.000  0.074  0.000  0.074
tot    0.000  0.228  0.256  0.484
 
band    40 # energy   33.66166334 # occ.  0.00000000
 
ion      s      p      d    tot
    1  0.004  0.033  0.056  0.093
    2  0.007  0.083  0.073  0.163
    3  0.004  0.047  0.000  0.051
    4  0.000  0.054  0.000  0.054
tot    0.016  0.216  0.129  0.360
 

 k-point     3 :    0.16666667 0.00000000 0.06250000     weight = 0.01041667

band     1 # energy  -10.42650310 # occ.  2.00000000
 
ion      s      p      d    tot
    1  0.095  0.005  0.024  0.124
    2  0.095  0.005  0.024  0.124
    3  0.226  0.000  0.000  0.226
    4  0.226  0.000  0.000  0.226
tot    0.641  0.011  0.049  0.701
 
band     2 # energy   -9.73383653 # occ.  2.00000000
 
ion      s      p      d    tot
    1  0.014  0.015  0.223  0.253
    2  0.014  0.015  0.224  0.253
    3  0.173  0.000  0.000  0.173
    4  0.173  0.000  0.000  0.173
tot    0.375  0.031  0.447  0.852
 
band     3 # energy   -8.16968288 # occ.  2.00000000
 
ion      s      p      d    tot
    1  0.000  0.000  0.520  0.520
    2  0.000  0.000  0.447  0.448
    3  0.000  0.007  0.000  0.007
    4  0.000  0.008  0.000  0.008
tot    0.001  0.016  0.967  0.984
 
band     4 # energy   -8.15044484 # occ.  2.00000000
 
ion      s      p      d    tot
    1  0.000  0.000  0.477  0.477
    2  0.000  0.000  0.493  0.493
    3  0.000  0.008  0.000  0.008
    4  0.000  0.008  0.000  0.008
tot    0.000  0.016  0.969  0.985
 
band     5 # energy   -8.10627633 # occ.  2.00000000
 
ion      s      p      d    tot
    1  0.003  0.000  0.353  0.356
    2  0.003  0.000  0.602  0.606
    3  0.001  0.009  0.000  0.011
    4  0.001  0.005  0.000  0.006
tot    0.009  0.014  0.955  0.978
 
band     6 # energy   -8.07603799 # occ.  2.00000000
 
ion      s      p      d    tot
    1  0.000  0.000  0.505  0.505
    2  0.000  0.000  0.471  0.471
    3  0.000  0.006  0.000  0.006
    4  0.000  0.006  0.000  0.006
tot    0.000  0.012  0.975  0.988
 
band     7 # energy   -8.07440942 # occ.  2.00000000
 
ion      s      p      d    tot
    1  0.006  0.000  0.541  0.547
    2  0.005  0.000  0.398  0.403
    3  0.004  0.005  0.000  0.009
    4  0.004  0.009  0.000  0.013
tot    0.019  0.015  0.939  0.972
 
band     8 # energy   -7.95615204 # occ.  2.00000000
 
ion      s      p      d    tot
    1  0.000  0.000  0.539  0.539
    2  0.000  0.000  0.447  0.448
    3  0.000  0.000  0.000  0.000
    4  0.000  0.000  0.000  0.000
tot    0.001  0.000  0.986  0.987
 
band     9 # energy   -7.93560985 # occ.  2.00000000
 
ion      s      p      d    tot
    1  0.000  0.000  0.479  0.479
    2  0.000  0.000  0.510  0.510
    3  0.000  0.000  0.000  0.000
    4  0.000  0.000  0.000  0.000
tot    0.000  0.000  0.989  0.989
 
band    10 # energy   -7.87884103 # occ.  2.00000000
 
ion      s      p      d    tot
    1  0.000  0.000  0.465  0.465
    2  0.000  0.000  0.522  0.522
    3  0.001  0.000  0.000  0.001
    4  0.000  0.000  0.000  0.000
tot    0.002  0.001  0.987  0.989
 
band    11 # energy   -7.83784053 # occ.  2.00000000
 
ion      s      p      d    tot
    1  0.000  0.000  0.504  0.504
    2  0.000  0.000  0.490  0.490
    3  0.000  0.000  0.000  0.000
    4  0.000  0.000  0.000  0.000
tot    0.000  0.000  0.994  0.994
 
band    12 # energy   -6.47181945 # occ.  2.00000000
 
ion      s      p      d    tot
    1  0.018  0.018  0.284  0.319
    2  0.018  0.017  0.285  0.320
    3  0.122  0.001  0.000  0.123
    4  0.122  0.001  0.000  0.123
tot    0.279  0.038  0.569  0.886
 
band    13 # energy   -1.32300258 # occ.  2.00000000
 
ion      s      p      d    tot
    1  0.126  0.051  0.005  0.183
    2  0.126  0.052  0.005  0.183
    3  0.004  0.130  0.000  0.135
    4  0.004  0.130  0.000  0.134
tot    0.261  0.363  0.010  0.634
 
band    14 # energy    2.54680805 # occ.  2.00000000
 
ion      s      p      d    tot
    1  0.040  0.072  0.032  0.144
    2  0.035  0.070  0.031  0.136
    3  0.013  0.190  0.000  0.204
    4  0.014  0.201  0.000  0.215
tot    0.101  0.534  0.063  0.699
 
band    15 # energy    3.45277857 # occ.  2.00000000
 
ion      s      p      d    tot
    1  0.052  0.023  0.049  0.124
    2  0.060  0.024  0.053  0.137
    3  0.052  0.201  0.000  0.252
    4  0.051  0.181  0.000  0.232
tot    0.214  0.429  0.102  0.745
 
band    16 # energy    3.71268208 # occ.  2.00000000
 
ion      s      p      d    tot
    1  0.000  0.081  0.032  0.114
    2  0.000  0.082  0.032  0.114
    3  0.000  0.253  0.000  0.253
    4  0.000  0.253  0.000  0.253
tot    0.000  0.669  0.064  0.733
 
band    17 # energy    4.89506606 # occ.  2.00000000
 
ion      s      p      d    tot
    1  0.000  0.037  0.055  0.093
    2  0.000  0.040  0.051  0.091
    3  0.000  0.282  0.000  0.282
    4  0.000  0.294  0.000  0.294
tot    0.001  0.653  0.106  0.760
 
band    18 # energy    4.98157914 # occ.  2.00000000
 
ion      s      p      d    tot
    1  0.000  0.036  0.056  0.092
    2  0.000  0.035  0.057  0.092
    3  0.000  0.292  0.000  0.292
    4  0.000  0.293  0.000  0.293
tot    0.000  0.657  0.113  0.770
 
band    19 # energy    8.65234907 # occ.  0.00000000
 
ion      s      p      d    tot
    1  0.088  0.026  0.003  0.117
    2  0.083  0.025  0.004  0.111
    3  0.114  0.100  0.000  0.214
    4  0.115  0.098  0.000  0.213
tot    0.399  0.249  0.007  0.655
 
band    20 # energy   10.70881910 # occ.  0.00000000
 
ion      s      p      d    tot
    1  0.158  0.047  0.013  0.218
    2  0.161  0.049  0.013  0.223
    3  0.056  0.071  0.000  0.127
    4  0.055  0.068  0.000  0.123
tot    0.430  0.236  0.026  0.691
 
band    21 # energy   13.34567233 # occ.  0.00000000
 
ion      s      p      d    tot
    1  0.052  0.149  0.021  0.221
    2  0.030  0.113  0.025  0.168
    3  0.001  0.083  0.000  0.085
    4  0.000  0.107  0.000  0.107
tot    0.083  0.452  0.047  0.581
 
band    22 # energy   14.08250138 # occ.  0.00000000
 
ion      s      p      d    tot
    1  0.014  0.072  0.052  0.139
    2  0.039  0.115  0.051  0.205
    3  0.000  0.127  0.000  0.127
    4  0.002  0.106  0.000  0.108
tot    0.056  0.420  0.104  0.579
 
band    23 # energy   15.57847053 # occ.  0.00000000
 
ion      s      p      d    tot
    1  0.016  0.231  0.021  0.267
    2  0.033  0.230  0.015  0.277
    3  0.008  0.057  0.000  0.065
    4  0.007  0.053  0.000  0.060
tot    0.064  0.570  0.036  0.670
 
band    24 # energy   15.66258596 # occ.  0.00000000
 
ion      s      p      d    tot
    1  0.000  0.334  0.016  0.350
    2  0.000  0.338  0.016  0.354
    3  0.000  0.018  0.000  0.018
    4  0.000  0.011  0.000  0.011
tot    0.000  0.700  0.032  0.732
 
band    25 # energy   16.43918562 # occ.  0.00000000
 
ion      s      p      d    tot
    1  0.021  0.286  0.018  0.324
    2  0.002  0.242  0.027  0.272
    3  0.006  0.039  0.000  0.044
    4  0.006  0.035  0.000  0.041
tot    0.035  0.602  0.045  0.681
 
band    26 # energy   17.35650391 # occ.  0.00000000
 
ion      s      p      d    tot
    1  0.000  0.253  0.036  0.290
    2  0.000  0.260  0.032  0.293
    3  0.000  0.061  0.000  0.061
    4  0.000  0.070  0.000  0.070
tot    0.000  0.645  0.069  0.714
 
band    27 # energy   18.26547614 # occ.  0.00000000
 
ion      s      p      d    tot
    1  0.005  0.043  0.107  0.155
    2  0.004  0.116  0.098  0.217
    3  0.002  0.010  0.000  0.012
    4  0.001  0.020  0.000  0.021
tot    0.011  0.189  0.205  0.405
 
band    28 # energy   20.30661484 # occ.  0.00000000
 
ion      s      p      d    tot
    1  0.000  0.037  0.153  0.190
    2  0.000  0.011  0.159  0.170
    3  0.000  0.001  0.000  0.001
    4  0.000  0.000  0.000  0.000
tot    0.000  0.050  0.312  0.362
 
band    29 # energy   21.83130983 # occ.  0.00000000
 
ion      s      p      d    tot
    1  0.016  0.095  0.066  0.177
    2  0.016  0.041  0.074  0.131
    3  0.000  0.023  0.000  0.023
    4  0.001  0.019  0.000  0.020
tot    0.034  0.177  0.141  0.351
 
band    30 # energy   24.12480746 # occ.  0.00000000
 
ion      s      p      d    tot
    1  0.098  0.053  0.053  0.204
    2  0.115  0.051  0.047  0.212
    3  0.003  0.015  0.000  0.018
    4  0.001  0.012  0.000  0.013
tot    0.217  0.130  0.100  0.447
 
band    31 # energy   25.24692118 # occ.  0.00000000
 
ion      s      p      d    tot
    1  0.080  0.137  0.076  0.293
    2  0.001  0.049  0.057  0.107
    3  0.000  0.009  0.000  0.010
    4  0.003  0.036  0.000  0.039
tot    0.084  0.232  0.134  0.449
 
band    32 # energy   25.67795631 # occ.  0.00000000
 
ion      s      p      d    tot
    1  0.000  0.022  0.125  0.146
    2  0.000  0.044  0.130  0.174
    3  0.000  0.006  0.000  0.006
    4  0.000  0.002  0.000  0.002
tot    0.000  0.074  0.255  0.328
 
band    33 # energy   25.89899484 # occ.  0.00000000
 
ion      s      p      d    tot
    1  0.026  0.023  0.063  0.112
    2  0.100  0.166  0.050  0.316
    3  0.001  0.035  0.000  0.036
    4  0.002  0.008  0.000  0.011
tot    0.128  0.233  0.113  0.475
 
band    34 # energy   27.43215146 # occ.  0.00000000
 
ion      s      p      d    tot
    1  0.019  0.134  0.121  0.274
    2  0.008  0.095  0.162  0.264
    3  0.034  0.008  0.000  0.042
    4  0.028  0.012  0.000  0.040
tot    0.089  0.249  0.283  0.621
 
band    35 # energy   29.26603063 # occ.  0.00000000
 
ion      s      p      d    tot
    1  0.000  0.006  0.224  0.230