unknown system                          
           1
     3.196922    0.000000    0.000000
    -1.598461    2.768616    0.000000
     0.000000    0.000000    5.205169
   Ga   N 
     2     2
Direct configuration=     1
   0.33333333  0.66666667  0.99913723
   0.66666667  0.33333333  0.49913723
   0.33333333  0.66666667  0.37586277
   0.66666667  0.33333333  0.87586277
