   4   4   1   0
  0.1917561E+02  0.4398079E-09  0.4398079E-09  0.4555504E-09  0.5000000E-15
  1.000000000000000E-004
  CAR 
 unknown system                          
     13.69374602    -11.53483928  301      4.72551657      1.00000000
    -11.535  0.0000E+00  0.0000E+00
    -11.451  0.0000E+00  0.0000E+00
    -11.367  0.0000E+00  0.0000E+00
    -11.283  0.0000E+00  0.0000E+00
    -11.198  0.0000E+00  0.0000E+00
    -11.114  0.0000E+00  0.0000E+00
    -11.030  0.0000E+00  0.0000E+00
    -10.946  0.1465E-15  0.1232E-16
    -10.862  0.1305E-11  0.1097E-12
    -10.778  0.2909E-08  0.2448E-09
    -10.694  0.1756E-05  0.1479E-06
    -10.610  0.2995E-03  0.2533E-04
    -10.526  0.1523E-01  0.1306E-02
    -10.442  0.2475E+00  0.2212E-01
    -10.358  0.1405E+01  0.1402E+00
    -10.273  0.3183E+01  0.4080E+00
    -10.189  0.3659E+01  0.7157E+00
    -10.105  0.3341E+01  0.9966E+00
    -10.021  0.3559E+01  0.1296E+01
     -9.937  0.3753E+01  0.1612E+01
     -9.853  0.2990E+01  0.1863E+01
     -9.769  0.1343E+01  0.1976E+01
     -9.685  0.2666E+00  0.1998E+01
     -9.601  0.1977E-01  0.2000E+01
     -9.517  0.4797E-03  0.2000E+01
     -9.432  0.3459E-05  0.2000E+01
     -9.348  0.6967E-08  0.2000E+01
     -9.264  0.3768E-11  0.2000E+01
     -9.180  0.5202E-15  0.2000E+01
     -9.096  0.0000E+00  0.2000E+01
     -9.012  0.0000E+00  0.2000E+01
     -8.928  0.0000E+00  0.2000E+01
     -8.844  0.0000E+00  0.2000E+01
     -8.760  0.0000E+00  0.2000E+01
     -8.676  0.0000E+00  0.2000E+01
     -8.592  0.0000E+00  0.2000E+01
     -8.507  0.0000E+00  0.2000E+01
     -8.423  0.0000E+00  0.2000E+01
     -8.339  0.0000E+00  0.2000E+01
     -8.255  0.0000E+00  0.2000E+01
     -8.171  0.0000E+00  0.2000E+01
     -8.087  0.0000E+00  0.2000E+01
     -8.003  0.0000E+00  0.2000E+01
     -7.919  0.0000E+00  0.2000E+01
     -7.835  0.0000E+00  0.2000E+01
     -7.751  0.0000E+00  0.2000E+01
     -7.666  0.0000E+00  0.2000E+01
     -7.582  0.0000E+00  0.2000E+01
     -7.498  0.0000E+00  0.2000E+01
     -7.414  0.0000E+00  0.2000E+01
     -7.330  0.0000E+00  0.2000E+01
     -7.246  0.0000E+00  0.2000E+01
     -7.162  0.0000E+00  0.2000E+01
     -7.078  0.0000E+00  0.2000E+01
     -6.994  0.0000E+00  0.2000E+01
     -6.910  0.0000E+00  0.2000E+01
     -6.826  0.0000E+00  0.2000E+01
     -6.741  0.0000E+00  0.2000E+01
     -6.657  0.0000E+00  0.2000E+01
     -6.573  0.1298E-15  0.2000E+01
     -6.489  0.5100E-12  0.2000E+01
     -6.405  0.5030E-09  0.2000E+01
     -6.321  0.1263E-06  0.2000E+01
     -6.237  0.8288E-05  0.2000E+01
     -6.153  0.1537E-03  0.2000E+01
     -6.069  0.1039E-02  0.2000E+01
     -5.985  0.3978E-02  0.2000E+01
     -5.900  0.8710E-02  0.2001E+01
     -5.816  0.1252E-01  0.2002E+01
     -5.732  0.1616E-01  0.2004E+01
     -5.648  0.1512E-01  0.2005E+01
     -5.564  0.1833E-01  0.2006E+01
     -5.480  0.2217E-01  0.2008E+01
     -5.396  0.2213E-01  0.2010E+01
     -5.312  0.2229E-01  0.2012E+01
     -5.228  0.2193E-01  0.2014E+01
     -5.144  0.2762E-01  0.2016E+01
     -5.060  0.4201E-01  0.2020E+01
     -4.975  0.3720E-01  0.2023E+01
     -4.891  0.2283E-01  0.2025E+01
     -4.807  0.1485E-01  0.2026E+01
     -4.723  0.1879E-01  0.2028E+01
     -4.639  0.4065E-01  0.2031E+01
     -4.555  0.5603E-01  0.2036E+01
     -4.471  0.4986E-01  0.2040E+01
     -4.387  0.4609E-01  0.2044E+01
     -4.303  0.4249E-01  0.2047E+01
     -4.219  0.3118E-01  0.2050E+01
     -4.134  0.3215E-01  0.2053E+01
     -4.050  0.4001E-01  0.2056E+01
     -3.966  0.5089E-01  0.2060E+01
     -3.882  0.5570E-01  0.2065E+01
     -3.798  0.4015E-01  0.2068E+01
     -3.714  0.3024E-01  0.2071E+01
     -3.630  0.4191E-01  0.2074E+01
     -3.546  0.5072E-01  0.2079E+01
     -3.462  0.4528E-01  0.2083E+01
     -3.378  0.4516E-01  0.2086E+01
     -3.294  0.5098E-01  0.2091E+01
     -3.209  0.5221E-01  0.2095E+01
     -3.125  0.4364E-01  0.2099E+01
     -3.041  0.3666E-01  0.2102E+01
     -2.957  0.4725E-01  0.2106E+01
     -2.873  0.5525E-01  0.2110E+01
     -2.789  0.4245E-01  0.2114E+01
     -2.705  0.3285E-01  0.2117E+01
     -2.621  0.3829E-01  0.2120E+01
     -2.537  0.3974E-01  0.2123E+01
     -2.453  0.4508E-01  0.2127E+01
     -2.368  0.6249E-01  0.2132E+01
     -2.284  0.7442E-01  0.2139E+01
     -2.200  0.6471E-01  0.2144E+01
     -2.116  0.4168E-01  0.2148E+01
     -2.032  0.4501E-01  0.2151E+01
     -1.948  0.6081E-01  0.2156E+01
     -1.864  0.5643E-01  0.2161E+01
     -1.780  0.4662E-01  0.2165E+01
     -1.696  0.5747E-01  0.2170E+01
     -1.612  0.6621E-01  0.2175E+01
     -1.528  0.6840E-01  0.2181E+01
     -1.443  0.5235E-01  0.2186E+01
     -1.359  0.3086E-01  0.2188E+01
     -1.275  0.3103E-01  0.2191E+01
     -1.191  0.4330E-01  0.2194E+01
     -1.107  0.4533E-01  0.2198E+01
     -1.023  0.4416E-01  0.2202E+01
     -0.939  0.5340E-01  0.2206E+01
     -0.855  0.6562E-01  0.2212E+01
     -0.771  0.7465E-01  0.2218E+01
     -0.687  0.9133E-01  0.2226E+01
     -0.602  0.8911E-01  0.2233E+01
     -0.518  0.6147E-01  0.2239E+01
     -0.434  0.5432E-01  0.2243E+01
     -0.350  0.5986E-01  0.2248E+01
     -0.266  0.5238E-01  0.2253E+01
     -0.182  0.5112E-01  0.2257E+01
     -0.098  0.5011E-01  0.2261E+01
     -0.014  0.4955E-01  0.2265E+01
      0.070  0.6456E-01  0.2271E+01
      0.154  0.8099E-01  0.2278E+01
      0.239  0.8497E-01  0.2285E+01
      0.323  0.7483E-01  0.2291E+01
      0.407  0.5696E-01  0.2296E+01
      0.491  0.5291E-01  0.2300E+01
      0.575  0.4568E-01  0.2304E+01
      0.659  0.3113E-01  0.2307E+01
      0.743  0.2720E-01  0.2309E+01
      0.827  0.3813E-01  0.2312E+01
      0.911  0.4739E-01  0.2316E+01
      0.995  0.4333E-01  0.2320E+01
      1.079  0.4606E-01  0.2324E+01
      1.164  0.5169E-01  0.2328E+01
      1.248  0.6344E-01  0.2333E+01
      1.332  0.6755E-01  0.2339E+01
      1.416  0.5564E-01  0.2344E+01
      1.500  0.5414E-01  0.2348E+01
      1.584  0.7065E-01  0.2354E+01
      1.668  0.9276E-01  0.2362E+01
      1.752  0.8516E-01  0.2369E+01
      1.836  0.6264E-01  0.2374E+01
      1.920  0.5145E-01  0.2379E+01
      2.005  0.6201E-01  0.2384E+01
      2.089  0.6874E-01  0.2390E+01
      2.173  0.6321E-01  0.2395E+01
      2.257  0.7104E-01  0.2401E+01
      2.341  0.6281E-01  0.2406E+01
      2.425  0.6417E-01  0.2412E+01
      2.509  0.7979E-01  0.2418E+01
      2.593  0.6707E-01  0.2424E+01
      2.677  0.5704E-01  0.2429E+01
      2.761  0.6294E-01  0.2434E+01
      2.845  0.6779E-01  0.2440E+01
      2.930  0.8691E-01  0.2447E+01
      3.014  0.9031E-01  0.2455E+01
      3.098  0.8191E-01  0.2462E+01
      3.182  0.9825E-01  0.2470E+01
      3.266  0.1317E+00  0.2481E+01
      3.350  0.1293E+00  0.2492E+01
      3.434  0.9432E-01  0.2500E+01
      3.518  0.8851E-01  0.2507E+01
      3.602  0.8436E-01  0.2514E+01
      3.686  0.7672E-01  0.2521E+01
      3.771  0.8307E-01  0.2528E+01
      3.855  0.9900E-01  0.2536E+01
      3.939  0.9804E-01  0.2544E+01
      4.023  0.1000E+00  0.2553E+01
      4.107  0.1047E+00  0.2562E+01
      4.191  0.8459E-01  0.2569E+01
      4.275  0.6910E-01  0.2575E+01
      4.359  0.7013E-01  0.2580E+01
      4.443  0.6222E-01  0.2586E+01
      4.527  0.5879E-01  0.2591E+01
      4.611  0.5904E-01  0.2596E+01
      4.696  0.4165E-01  0.2599E+01
      4.780  0.3249E-01  0.2602E+01
      4.864  0.4114E-01  0.2605E+01
      4.948  0.4539E-01  0.2609E+01
      5.032  0.4262E-01  0.2613E+01
      5.116  0.4805E-01  0.2617E+01
      5.200  0.5952E-01  0.2622E+01
      5.284  0.5867E-01  0.2627E+01
      5.368  0.5196E-01  0.2631E+01
      5.452  0.5663E-01  0.2636E+01
      5.537  0.6397E-01  0.2641E+01
      5.621  0.8031E-01  0.2648E+01
      5.705  0.1027E+00  0.2657E+01
      5.789  0.1088E+00  0.2666E+01
      5.873  0.1126E+00  0.2675E+01
      5.957  0.1060E+00  0.2684E+01
      6.041  0.1085E+00  0.2693E+01
      6.125  0.1187E+00  0.2703E+01
      6.209  0.1090E+00  0.2712E+01
      6.293  0.9150E-01  0.2720E+01
      6.377  0.8025E-01  0.2727E+01
      6.462  0.7550E-01  0.2733E+01
      6.546  0.7719E-01  0.2740E+01
      6.630  0.7150E-01  0.2746E+01
      6.714  0.7863E-01  0.2752E+01
      6.798  0.8899E-01  0.2760E+01
      6.882  0.8580E-01  0.2767E+01
      6.966  0.6929E-01  0.2773E+01
      7.050  0.5673E-01  0.2778E+01
      7.134  0.6599E-01  0.2783E+01
      7.218  0.8823E-01  0.2791E+01
      7.303  0.9968E-01  0.2799E+01
      7.387  0.9417E-01  0.2807E+01
      7.471  0.9353E-01  0.2815E+01
      7.555  0.8531E-01  0.2822E+01
      7.639  0.8880E-01  0.2829E+01
      7.723  0.1139E+00  0.2839E+01
      7.807  0.1356E+00  0.2850E+01
      7.891  0.1310E+00  0.2861E+01
      7.975  0.1090E+00  0.2870E+01
      8.059  0.8358E-01  0.2878E+01
      8.143  0.7896E-01  0.2884E+01
      8.228  0.7331E-01  0.2890E+01
      8.312  0.7080E-01  0.2896E+01
      8.396  0.8345E-01  0.2903E+01
      8.480  0.8319E-01  0.2910E+01
      8.564  0.9990E-01  0.2919E+01
      8.648  0.1238E+00  0.2929E+01
      8.732  0.1085E+00  0.2938E+01
      8.816  0.9294E-01  0.2946E+01
      8.900  0.1089E+00  0.2955E+01
      8.984  0.1082E+00  0.2964E+01
      9.069  0.1060E+00  0.2973E+01
      9.153  0.1132E+00  0.2983E+01
      9.237  0.1155E+00  0.2992E+01
      9.321  0.9711E-01  0.3001E+01
      9.405  0.8446E-01  0.3008E+01
      9.489  0.9983E-01  0.3016E+01
      9.573  0.1083E+00  0.3025E+01
      9.657  0.1065E+00  0.3034E+01
      9.741  0.1088E+00  0.3043E+01
      9.825  0.1086E+00  0.3052E+01
      9.909  0.8667E-01  0.3060E+01
      9.994  0.7325E-01  0.3066E+01
     10.078  0.7364E-01  0.3072E+01
     10.162  0.7272E-01  0.3078E+01
     10.246  0.8326E-01  0.3085E+01
     10.330  0.7863E-01  0.3092E+01
     10.414  0.7261E-01  0.3098E+01
     10.498  0.8316E-01  0.3105E+01
     10.582  0.8424E-01  0.3112E+01
     10.666  0.7264E-01  0.3118E+01
     10.750  0.6564E-01  0.3124E+01
     10.835  0.7009E-01  0.3130E+01
     10.919  0.7131E-01  0.3136E+01
     11.003  0.8718E-01  0.3143E+01
     11.087  0.8450E-01  0.3150E+01
     11.171  0.6241E-01  0.3155E+01
     11.255  0.5900E-01  0.3160E+01
     11.339  0.5695E-01  0.3165E+01
     11.423  0.4213E-01  0.3169E+01
     11.507  0.4562E-01  0.3172E+01
     11.591  0.5737E-01  0.3177E+01
     11.675  0.4369E-01  0.3181E+01
     11.760  0.3113E-01  0.3183E+01
     11.844  0.2867E-01  0.3186E+01
     11.928  0.2270E-01  0.3188E+01
     12.012  0.1984E-01  0.3189E+01
     12.096  0.1714E-01  0.3191E+01
     12.180  0.1604E-01  0.3192E+01
     12.264  0.2151E-01  0.3194E+01
     12.348  0.2337E-01  0.3196E+01
     12.432  0.2147E-01  0.3198E+01
     12.516  0.1629E-01  0.3199E+01
     12.601  0.7494E-02  0.3200E+01
     12.685  0.1991E-02  0.3200E+01
     12.769  0.2173E-03  0.3200E+01
     12.853  0.7186E-05  0.3200E+01
     12.937  0.6401E-07  0.3200E+01
     13.021  0.1471E-09  0.3200E+01
     13.105  0.8549E-13  0.3200E+01
     13.189  0.1304E-16  0.3200E+01
     13.273  0.0000E+00  0.3200E+01
     13.357  0.0000E+00  0.3200E+01
     13.441  0.0000E+00  0.3200E+01
     13.526  0.0000E+00  0.3200E+01
     13.610  0.0000E+00  0.3200E+01
     13.694  0.0000E+00  0.3200E+01
     13.69374602    -11.53483928  301      4.72551657      1.00000000
    -11.535  0.0000E+00  0.0000E+00  0.0000E+00
    -11.451  0.0000E+00  0.0000E+00  0.0000E+00
    -11.367  0.0000E+00  0.0000E+00  0.0000E+00
    -11.283  0.0000E+00  0.0000E+00  0.0000E+00
    -11.198  0.0000E+00  0.0000E+00  0.0000E+00
    -11.114  0.0000E+00  0.0000E+00  0.0000E+00
    -11.030  0.0000E+00  0.0000E+00  0.0000E+00
    -10.946  0.2192E-18  0.2748E-18  0.7200E-15
    -10.862  0.2158E-14  0.2733E-14  0.6413E-11
    -10.778  0.5169E-11  0.6607E-11  0.1430E-07
    -10.694  0.3443E-08  0.4366E-08  0.8630E-05
    -10.610  0.6626E-06  0.8182E-06  0.1471E-02
    -10.526  0.3862E-04  0.4553E-04  0.7482E-01
    -10.442  0.7280E-03  0.7968E-03  0.1216E+01
    -10.358  0.4898E-02  0.4741E-02  0.6899E+01
    -10.273  0.1348E-01  0.1083E-01  0.1564E+02
    -10.189  0.1808E-01  0.1194E-01  0.1800E+02
    -10.105  0.1622E-01  0.1001E-01  0.1647E+02
    -10.021  0.1398E-01  0.9508E-02  0.1760E+02
     -9.937  0.9972E-02  0.8159E-02  0.1861E+02
     -9.853  0.5235E-02  0.5325E-02  0.1486E+02
     -9.769  0.1867E-02  0.2347E-02  0.6679E+01
     -9.685  0.3312E-03  0.4968E-03  0.1327E+01
     -9.601  0.2229E-04  0.3863E-04  0.9839E-01
     -9.517  0.4864E-06  0.9561E-06  0.2388E-02
     -9.432  0.3142E-08  0.6934E-08  0.1722E-04
     -9.348  0.5674E-11  0.1398E-10  0.3468E-07
     -9.264  0.2765E-14  0.7557E-14  0.1876E-10
     -9.180  0.3315E-18  0.1042E-17  0.2590E-14
     -9.096  0.0000E+00  0.0000E+00  0.0000E+00
     -9.012  0.0000E+00  0.0000E+00  0.0000E+00
     -8.928  0.0000E+00  0.0000E+00  0.0000E+00
     -8.844  0.0000E+00  0.0000E+00  0.0000E+00
     -8.760  0.0000E+00  0.0000E+00  0.0000E+00
     -8.676  0.0000E+00  0.0000E+00  0.0000E+00
     -8.592  0.0000E+00  0.0000E+00  0.0000E+00
     -8.507  0.0000E+00  0.0000E+00  0.0000E+00
     -8.423  0.0000E+00  0.0000E+00  0.0000E+00
     -8.339  0.0000E+00  0.0000E+00  0.0000E+00
     -8.255  0.0000E+00  0.0000E+00  0.0000E+00
     -8.171  0.0000E+00  0.0000E+00  0.0000E+00
     -8.087  0.0000E+00  0.0000E+00  0.0000E+00
     -8.003  0.0000E+00  0.0000E+00  0.0000E+00
     -7.919  0.0000E+00  0.0000E+00  0.0000E+00
     -7.835  0.0000E+00  0.0000E+00  0.0000E+00
     -7.751  0.0000E+00  0.0000E+00  0.0000E+00
     -7.666  0.0000E+00  0.0000E+00  0.0000E+00
     -7.582  0.0000E+00  0.0000E+00  0.0000E+00
     -7.498  0.0000E+00  0.0000E+00  0.0000E+00
     -7.414  0.0000E+00  0.0000E+00  0.0000E+00
     -7.330  0.0000E+00  0.0000E+00  0.0000E+00
     -7.246  0.0000E+00  0.0000E+00  0.0000E+00
     -7.162  0.0000E+00  0.0000E+00  0.0000E+00
     -7.078  0.0000E+00  0.0000E+00  0.0000E+00
     -6.994  0.0000E+00  0.0000E+00  0.0000E+00
     -6.910  0.0000E+00  0.0000E+00  0.0000E+00
     -6.826  0.0000E+00  0.0000E+00  0.0000E+00
     -6.741  0.0000E+00  0.0000E+00  0.0000E+00
     -6.657  0.0000E+00  0.0000E+00  0.0000E+00
     -6.573  0.3468E-15  0.8741E-18  0.2346E-18
     -6.489  0.1362E-11  0.3434E-14  0.9215E-15
     -6.405  0.1344E-08  0.3390E-11  0.9093E-12
     -6.321  0.3373E-06  0.8551E-09  0.2288E-09
     -6.237  0.2214E-04  0.5795E-07  0.1527E-07
     -6.153  0.4103E-03  0.1272E-05  0.3105E-06
     -6.069  0.2771E-02  0.1412E-04  0.2856E-05
     -5.985  0.1058E-01  0.8820E-04  0.1558E-04
     -5.900  0.2311E-01  0.2522E-03  0.4243E-04
     -5.816  0.3310E-01  0.5100E-03  0.8316E-04
     -5.732  0.4258E-01  0.8288E-03  0.1340E-03
     -5.648  0.3970E-01  0.9577E-03  0.1565E-03
     -5.564  0.4789E-01  0.1473E-02  0.2426E-03
     -5.480  0.5773E-01  0.1999E-02  0.3294E-03
     -5.396  0.5741E-01  0.2263E-02  0.3723E-03
     -5.312  0.5759E-01  0.2559E-02  0.4252E-03
     -5.228  0.5648E-01  0.2806E-02  0.4801E-03
     -5.144  0.7082E-01  0.4015E-02  0.7119E-03
     -5.060  0.1074E+00  0.6490E-02  0.1157E-02
     -4.975  0.9488E-01  0.5992E-02  0.1059E-02
     -4.891  0.5807E-01  0.3925E-02  0.7107E-03
     -4.807  0.3762E-01  0.2785E-02  0.4998E-03
     -4.723  0.4740E-01  0.3909E-02  0.7619E-03
     -4.639  0.1023E+00  0.8854E-02  0.1736E-02
     -4.555  0.1407E+00  0.1259E-01  0.2449E-02
     -4.471  0.1250E+00  0.1169E-01  0.2333E-02
     -4.387  0.1150E+00  0.1141E-01  0.2215E-02
     -4.303  0.1058E+00  0.1084E-01  0.2115E-02
     -4.219  0.7755E-01  0.8298E-02  0.1708E-02
     -4.134  0.8001E-01  0.9085E-02  0.2026E-02
     -4.050  0.9923E-01  0.1182E-01  0.2623E-02
     -3.966  0.1255E+00  0.1556E-01  0.3262E-02
     -3.882  0.1368E+00  0.1735E-01  0.3544E-02
     -3.798  0.9834E-01  0.1285E-01  0.2573E-02
     -3.714  0.7379E-01  0.1018E-01  0.2053E-02
     -3.630  0.1017E+00  0.1465E-01  0.2831E-02
     -3.546  0.1228E+00  0.1827E-01  0.3427E-02
     -3.462  0.1095E+00  0.1683E-01  0.3185E-02
     -3.378  0.1092E+00  0.1716E-01  0.3452E-02
     -3.294  0.1233E+00  0.1939E-01  0.4023E-02
     -3.209  0.1260E+00  0.2003E-01  0.4119E-02
     -3.125  0.1051E+00  0.1725E-01  0.3506E-02
     -3.041  0.8783E-01  0.1540E-01  0.3063E-02
     -2.957  0.1131E+00  0.2033E-01  0.4150E-02
     -2.873  0.1327E+00  0.2361E-01  0.5007E-02
     -2.789  0.1020E+00  0.1816E-01  0.3943E-02
     -2.705  0.7865E-01  0.1438E-01  0.3094E-02
     -2.621  0.9154E-01  0.1706E-01  0.3609E-02
     -2.537  0.9484E-01  0.1815E-01  0.3790E-02
     -2.453  0.1082E+00  0.2089E-01  0.4606E-02
     -2.368  0.1512E+00  0.2847E-01  0.6730E-02
     -2.284  0.1806E+00  0.3361E-01  0.8031E-02
     -2.200  0.1562E+00  0.2963E-01  0.6756E-02
     -2.116  0.9854E-01  0.2025E-01  0.4051E-02
     -2.032  0.1058E+00  0.2296E-01  0.4431E-02
     -1.948  0.1463E+00  0.2994E-01  0.6652E-02
     -1.864  0.1366E+00  0.2725E-01  0.6343E-02
     -1.780  0.1104E+00  0.2368E-01  0.4804E-02
     -1.696  0.1361E+00  0.2972E-01  0.5942E-02
     -1.612  0.1567E+00  0.3456E-01  0.7047E-02
     -1.528  0.1612E+00  0.3631E-01  0.7413E-02
     -1.443  0.1238E+00  0.2809E-01  0.5850E-02
     -1.359  0.7173E-01  0.1770E-01  0.3417E-02
     -1.275  0.6768E-01  0.2086E-01  0.3185E-02
     -1.191  0.9352E-01  0.3004E-01  0.4545E-02
     -1.107  0.9872E-01  0.3120E-01  0.4851E-02
     -1.023  0.9641E-01  0.3039E-01  0.4703E-02
     -0.939  0.1168E+00  0.3643E-01  0.5574E-02
     -0.855  0.1422E+00  0.4582E-01  0.6799E-02
     -0.771  0.1613E+00  0.5370E-01  0.8009E-02
     -0.687  0.2008E+00  0.6523E-01  0.1038E-01
     -0.602  0.1952E+00  0.6467E-01  0.1016E-01
     -0.518  0.1335E+00  0.4521E-01  0.6797E-02
     -0.434  0.1168E+00  0.4054E-01  0.6098E-02
     -0.350  0.1309E+00  0.4391E-01  0.7082E-02
     -0.266  0.1162E+00  0.3805E-01  0.6288E-02
     -0.182  0.1091E+00  0.3974E-01  0.6062E-02
     -0.098  0.1039E+00  0.4103E-01  0.5949E-02
     -0.014  0.1036E+00  0.4068E-01  0.5972E-02
      0.070  0.1336E+00  0.5460E-01  0.8058E-02
      0.154  0.1653E+00  0.7046E-01  0.1020E-01
      0.239  0.1740E+00  0.7389E-01  0.1059E-01
      0.323  0.1500E+00  0.6675E-01  0.9298E-02
      0.407  0.1181E+00  0.4888E-01  0.7619E-02
      0.491  0.1182E+00  0.4159E-01  0.7757E-02
      0.575  0.1042E+00  0.3548E-01  0.6810E-02
      0.659  0.7130E-01  0.2455E-01  0.4525E-02
      0.743  0.5846E-01  0.2365E-01  0.3764E-02
      0.827  0.7367E-01  0.3721E-01  0.5137E-02
      0.911  0.8991E-01  0.4721E-01  0.6488E-02
      0.995  0.8360E-01  0.4321E-01  0.6173E-02
      1.079  0.8574E-01  0.4808E-01  0.6448E-02
      1.164  0.8892E-01  0.5767E-01  0.6863E-02
      1.248  0.1076E+00  0.7191E-01  0.8513E-02
      1.332  0.1224E+00  0.7340E-01  0.9588E-02
      1.416  0.1005E+00  0.6124E-01  0.8297E-02
      1.500  0.7845E-01  0.6908E-01  0.7364E-02
      1.584  0.7417E-01  0.1036E+00  0.8405E-02
      1.668  0.9622E-01  0.1369E+00  0.1120E-01
      1.752  0.9891E-01  0.1218E+00  0.1076E-01
      1.836  0.8862E-01  0.8303E-01  0.8778E-02
      1.920  0.7341E-01  0.6807E-01  0.7548E-02
      2.005  0.7674E-01  0.8810E-01  0.8581E-02
      2.089  0.7434E-01  0.1030E+00  0.9018E-02
      2.173  0.5965E-01  0.1001E+00  0.7855E-02
      2.257  0.6047E-01  0.1172E+00  0.8578E-02
      2.341  0.4096E-01  0.1102E+00  0.7328E-02
      2.425  0.4058E-01  0.1147E+00  0.7657E-02
      2.509  0.7801E-01  0.1303E+00  0.1043E-01
      2.593  0.8528E-01  0.9982E-01  0.9630E-02
      2.677  0.6443E-01  0.8754E-01  0.8870E-02
      2.761  0.4862E-01  0.1084E+00  0.9718E-02
      2.845  0.3793E-01  0.1258E+00  0.1035E-01
      2.930  0.3605E-01  0.1685E+00  0.1284E-01
      3.014  0.3467E-01  0.1786E+00  0.1266E-01
      3.098  0.3945E-01  0.1607E+00  0.1137E-01
      3.182  0.5550E-01  0.1909E+00  0.1417E-01
      3.266  0.7948E-01  0.2546E+00  0.1997E-01
      3.350  0.8172E-01  0.2486E+00  0.2022E-01
      3.434  0.5612E-01  0.1856E+00  0.1460E-01
      3.518  0.3895E-01  0.1844E+00  0.1301E-01
      3.602  0.2658E-01  0.1815E+00  0.1279E-01
      3.686  0.2258E-01  0.1681E+00  0.1195E-01
      3.771  0.2433E-01  0.1857E+00  0.1234E-01
      3.855  0.3000E-01  0.2200E+00  0.1536E-01
      3.939  0.4056E-01  0.2112E+00  0.1624E-01
      4.023  0.4818E-01  0.2145E+00  0.1726E-01
      4.107  0.4476E-01  0.2277E+00  0.1862E-01
      4.191  0.3239E-01  0.1841E+00  0.1568E-01
      4.275  0.2887E-01  0.1475E+00  0.1378E-01
      4.359  0.2979E-01  0.1494E+00  0.1441E-01
      4.443  0.2485E-01  0.1339E+00  0.1265E-01
      4.527  0.2967E-01  0.1203E+00  0.1287E-01
      4.611  0.3808E-01  0.1156E+00  0.1370E-01
      4.696  0.2752E-01  0.8159E-01  0.1001E-01
      4.780  0.1898E-01  0.6434E-01  0.7960E-02
      4.864  0.2268E-01  0.8185E-01  0.1017E-01
      4.948  0.2169E-01  0.9238E-01  0.1145E-01
      5.032  0.1816E-01  0.8740E-01  0.1121E-01
      5.116  0.2558E-01  0.9566E-01  0.1292E-01
      5.200  0.3784E-01  0.1156E+00  0.1586E-01
      5.284  0.4970E-01  0.1064E+00  0.1546E-01
      5.368  0.5868E-01  0.8372E-01  0.1387E-01
      5.452  0.6612E-01  0.8304E-01  0.1661E-01
      5.537  0.7607E-01  0.8726E-01  0.1984E-01
      5.621  0.9608E-01  0.1080E+00  0.2481E-01
      5.705  0.1191E+00  0.1429E+00  0.3172E-01
      5.789  0.1214E+00  0.1536E+00  0.3435E-01
      5.873  0.1182E+00  0.1664E+00  0.3564E-01
      5.957  0.1047E+00  0.1625E+00  0.3385E-01
      6.041  0.1001E+00  0.1744E+00  0.3456E-01
      6.125  0.1134E+00  0.1962E+00  0.3606E-01
      6.209  0.1087E+00  0.1761E+00  0.3294E-01
      6.293  0.9148E-01  0.1453E+00  0.2763E-01
      6.377  0.8496E-01  0.1263E+00  0.2353E-01
      6.462  0.7746E-01  0.1194E+00  0.2335E-01
      6.546  0.7205E-01  0.1258E+00  0.2510E-01
      6.630  0.6491E-01  0.1177E+00  0.2345E-01
      6.714  0.6528E-01  0.1298E+00  0.2633E-01
      6.798  0.6928E-01  0.1507E+00  0.2999E-01
      6.882  0.6493E-01  0.1500E+00  0.2916E-01
      6.966  0.5278E-01  0.1206E+00  0.2365E-01
      7.050  0.4609E-01  0.9712E-01  0.1923E-01
      7.134  0.5373E-01  0.1121E+00  0.2295E-01
      7.218  0.6325E-01  0.1524E+00  0.3242E-01
      7.303  0.6518E-01  0.1772E+00  0.3718E-01
      7.387  0.6818E-01  0.1650E+00  0.3413E-01
      7.471  0.7526E-01  0.1595E+00  0.3327E-01
      7.555  0.6268E-01  0.1471E+00  0.3153E-01
      7.639  0.5973E-01  0.1566E+00  0.3382E-01
      7.723  0.7324E-01  0.2033E+00  0.4398E-01
      7.807  0.8221E-01  0.2431E+00  0.5373E-01
      7.891  0.8521E-01  0.2307E+00  0.5214E-01
      7.975  0.8148E-01  0.1839E+00  0.4306E-01
      8.059  0.6237E-01  0.1418E+00  0.3354E-01
      8.143  0.5153E-01  0.1464E+00  0.3136E-01
      8.228  0.4169E-01  0.1385E+00  0.3027E-01
      8.312  0.3582E-01  0.1300E+00  0.3165E-01
      8.396  0.4305E-01  0.1540E+00  0.3698E-01
      8.480  0.4327E-01  0.1551E+00  0.3650E-01
      8.564  0.4875E-01  0.1838E+00  0.4606E-01
      8.648  0.5780E-01  0.2258E+00  0.5732E-01
      8.732  0.5193E-01  0.2005E+00  0.4781E-01
      8.816  0.4996E-01  0.1711E+00  0.3973E-01
      8.900  0.6183E-01  0.1967E+00  0.4785E-01
      8.984  0.5533E-01  0.1963E+00  0.4943E-01
      9.069  0.4909E-01  0.1986E+00  0.4909E-01
      9.153  0.5325E-01  0.2139E+00  0.5324E-01
      9.237  0.5598E-01  0.2188E+00  0.5493E-01
      9.321  0.4778E-01  0.1874E+00  0.4580E-01
      9.405  0.3677E-01  0.1649E+00  0.4069E-01
      9.489  0.3977E-01  0.1936E+00  0.4866E-01
      9.573  0.4494E-01  0.2096E+00  0.5143E-01
      9.657  0.4330E-01  0.2088E+00  0.4881E-01
      9.741  0.4467E-01  0.2180E+00  0.4962E-01
      9.825  0.4994E-01  0.2207E+00  0.4913E-01
      9.909  0.4405E-01  0.1731E+00  0.3929E-01
      9.994  0.3659E-01  0.1485E+00  0.3314E-01
     10.078  0.3605E-01  0.1505E+00  0.3424E-01
     10.162  0.3285E-01  0.1442E+00  0.3705E-01
     10.246  0.3050E-01  0.1647E+00  0.4443E-01
     10.330  0.2753E-01  0.1581E+00  0.4077E-01
     10.414  0.3139E-01  0.1470E+00  0.3571E-01
     10.498  0.4193E-01  0.1679E+00  0.3923E-01
     10.582  0.4176E-01  0.1719E+00  0.3979E-01
     10.666  0.3072E-01  0.1469E+00  0.3665E-01
     10.750  0.2913E-01  0.1303E+00  0.3325E-01
     10.835  0.3964E-01  0.1410E+00  0.3227E-01
     10.919  0.3891E-01  0.1456E+00  0.3228E-01
     11.003  0.3764E-01  0.1740E+00  0.4167E-01
     11.087  0.3421E-01  0.1677E+00  0.4117E-01
     11.171  0.2639E-01  0.1269E+00  0.3085E-01
     11.255  0.2380E-01  0.1260E+00  0.2981E-01
     11.339  0.1865E-01  0.1240E+00  0.2910E-01
     11.423  0.1126E-01  0.9389E-01  0.2142E-01
     11.507  0.1425E-01  0.1037E+00  0.2211E-01
     11.591  0.2049E-01  0.1280E+00  0.2696E-01
     11.675  0.1572E-01  0.9479E-01  0.2031E-01
     11.760  0.1198E-01  0.6724E-01  0.1438E-01
     11.844  0.1265E-01  0.6656E-01  0.1239E-01
     11.928  0.1001E-01  0.5529E-01  0.9337E-02
     12.012  0.8060E-02  0.4725E-01  0.8798E-02
     12.096  0.5733E-02  0.4183E-01  0.7717E-02
     12.180  0.5794E-02  0.4125E-01  0.6511E-02
     12.264  0.1163E-01  0.5318E-01  0.8479E-02
     12.348  0.1293E-01  0.5847E-01  0.8735E-02
     12.432  0.8432E-02  0.5621E-01  0.8110E-02
     12.516  0.4459E-02  0.4101E-01  0.6826E-02
     12.601  0.1116E-02  0.1768E-01  0.3553E-02
     12.685  0.8971E-04  0.4557E-02  0.1029E-02
     12.769  0.2042E-05  0.4951E-03  0.1154E-03
     12.853  0.1245E-07  0.1637E-04  0.3842E-05
     12.937  0.1967E-10  0.1459E-06  0.3426E-07
     13.021  0.7922E-14  0.3353E-09  0.7875E-10
     13.105  0.3339E-18  0.1948E-12  0.4577E-13
     13.189  0.1176E-29  0.2972E-16  0.6981E-17
     13.273  0.0000E+00  0.0000E+00  0.0000E+00
     13.357  0.0000E+00  0.0000E+00  0.0000E+00
     13.441  0.0000E+00  0.0000E+00  0.0000E+00
     13.526  0.0000E+00  0.0000E+00  0.0000E+00
     13.610  0.0000E+00  0.0000E+00  0.0000E+00
     13.694  0.0000E+00  0.0000E+00  0.0000E+00
     13.69374602    -11.53483928  301      4.72551657      1.00000000
    -11.535  0.0000E+00  0.0000E+00  0.0000E+00
    -11.451  0.0000E+00  0.0000E+00  0.0000E+00
    -11.367  0.0000E+00  0.0000E+00  0.0000E+00
    -11.283  0.0000E+00  0.0000E+00  0.0000E+00
    -11.198  0.0000E+00  0.0000E+00  0.0000E+00
    -11.114  0.0000E+00  0.0000E+00  0.0000E+00
    -11.030  0.0000E+00  0.0000E+00  0.0000E+00
    -10.946  0.2192E-18  0.2748E-18  0.7200E-15
    -10.862  0.2158E-14  0.2733E-14  0.6413E-11
    -10.778  0.5169E-11  0.6607E-11  0.1430E-07
    -10.694  0.3443E-08  0.4366E-08  0.8630E-05
    -10.610  0.6626E-06  0.8182E-06  0.1471E-02
    -10.526  0.3862E-04  0.4553E-04  0.7482E-01
    -10.442  0.7280E-03  0.7968E-03  0.1216E+01
    -10.358  0.4898E-02  0.4741E-02  0.6899E+01
    -10.273  0.1348E-01  0.1083E-01  0.1564E+02
    -10.189  0.1808E-01  0.1194E-01  0.1800E+02
    -10.105  0.1622E-01  0.1001E-01  0.1647E+02
    -10.021  0.1398E-01  0.9508E-02  0.1760E+02
     -9.937  0.9972E-02  0.8159E-02  0.1861E+02
     -9.853  0.5235E-02  0.5325E-02  0.1486E+02
     -9.769  0.1867E-02  0.2347E-02  0.6679E+01
     -9.685  0.3312E-03  0.4968E-03  0.1327E+01
     -9.601  0.2229E-04  0.3863E-04  0.9839E-01
     -9.517  0.4864E-06  0.9561E-06  0.2388E-02
     -9.432  0.3142E-08  0.6934E-08  0.1722E-04
     -9.348  0.5674E-11  0.1398E-10  0.3468E-07
     -9.264  0.2765E-14  0.7557E-14  0.1876E-10
     -9.180  0.3315E-18  0.1042E-17  0.2590E-14
     -9.096  0.0000E+00  0.0000E+00  0.0000E+00
     -9.012  0.0000E+00  0.0000E+00  0.0000E+00
     -8.928  0.0000E+00  0.0000E+00  0.0000E+00
     -8.844  0.0000E+00  0.0000E+00  0.0000E+00
     -8.760  0.0000E+00  0.0000E+00  0.0000E+00
     -8.676  0.0000E+00  0.0000E+00  0.0000E+00
     -8.592  0.0000E+00  0.0000E+00  0.0000E+00
     -8.507  0.0000E+00  0.0000E+00  0.0000E+00
     -8.423  0.0000E+00  0.0000E+00  0.0000E+00
     -8.339  0.0000E+00  0.0000E+00  0.0000E+00
     -8.255  0.0000E+00  0.0000E+00  0.0000E+00
     -8.171  0.0000E+00  0.0000E+00  0.0000E+00
     -8.087  0.0000E+00  0.0000E+00  0.0000E+00
     -8.003  0.0000E+00  0.0000E+00  0.0000E+00
     -7.919  0.0000E+00  0.0000E+00  0.0000E+00
     -7.835  0.0000E+00  0.0000E+00  0.0000E+00
     -7.751  0.0000E+00  0.0000E+00  0.0000E+00
     -7.666  0.0000E+00  0.0000E+00  0.0000E+00
     -7.582  0.0000E+00  0.0000E+00  0.0000E+00
     -7.498  0.0000E+00  0.0000E+00  0.0000E+00
     -7.414  0.0000E+00  0.0000E+00  0.0000E+00
     -7.330  0.0000E+00  0.0000E+00  0.0000E+00
     -7.246  0.0000E+00  0.0000E+00  0.0000E+00
     -7.162  0.0000E+00  0.0000E+00  0.0000E+00
     -7.078  0.0000E+00  0.0000E+00  0.0000E+00
     -6.994  0.0000E+00  0.0000E+00  0.0000E+00
     -6.910  0.0000E+00  0.0000E+00  0.0000E+00
     -6.826  0.0000E+00  0.0000E+00  0.0000E+00
     -6.741  0.0000E+00  0.0000E+00  0.0000E+00
     -6.657  0.0000E+00  0.0000E+00  0.0000E+00
     -6.573  0.3468E-15  0.8741E-18  0.2346E-18
     -6.489  0.1362E-11  0.3434E-14  0.9215E-15
     -6.405  0.1344E-08  0.3390E-11  0.9093E-12
     -6.321  0.3373E-06  0.8551E-09  0.2288E-09
     -6.237  0.2214E-04  0.5795E-07  0.1527E-07
     -6.153  0.4103E-03  0.1272E-05  0.3105E-06
     -6.069  0.2771E-02  0.1412E-04  0.2856E-05
     -5.985  0.1058E-01  0.8820E-04  0.1558E-04
     -5.900  0.2311E-01  0.2522E-03  0.4243E-04
     -5.816  0.3310E-01  0.5100E-03  0.8316E-04
     -5.732  0.4258E-01  0.8288E-03  0.1340E-03
     -5.648  0.3970E-01  0.9577E-03  0.1565E-03
     -5.564  0.4789E-01  0.1473E-02  0.2426E-03
     -5.480  0.5773E-01  0.1999E-02  0.3294E-03
     -5.396  0.5741E-01  0.2263E-02  0.3723E-03
     -5.312  0.5759E-01  0.2559E-02  0.4252E-03
     -5.228  0.5648E-01  0.2806E-02  0.4801E-03
     -5.144  0.7082E-01  0.4015E-02  0.7119E-03
     -5.060  0.1074E+00  0.6490E-02  0.1157E-02
     -4.975  0.9488E-01  0.5992E-02  0.1059E-02
     -4.891  0.5807E-01  0.3925E-02  0.7107E-03
     -4.807  0.3762E-01  0.2785E-02  0.4998E-03
     -4.723  0.4740E-01  0.3909E-02  0.7619E-03
     -4.639  0.1023E+00  0.8854E-02  0.1736E-02
     -4.555  0.1407E+00  0.1259E-01  0.2449E-02
     -4.471  0.1250E+00  0.1169E-01  0.2333E-02
     -4.387  0.1150E+00  0.1141E-01  0.2215E-02
     -4.303  0.1058E+00  0.1084E-01  0.2115E-02
     -4.219  0.7755E-01  0.8298E-02  0.1708E-02
     -4.134  0.8001E-01  0.9085E-02  0.2026E-02
     -4.050  0.9923E-01  0.1182E-01  0.2623E-02