    4    4   20    1
  0.1917561E+02  0.4398079E-09  0.4398079E-09  0.4555504E-09  0.5000000E-15
  1.000000000000000E-004
  CAR 
 unknown system                          
     52    100     32
 
  0.0000000E+00  0.0000000E+00  0.0000000E+00  0.1763668E-02
      1        -10.331815   1.000000
      2        -10.330355   1.000000
      3        -10.307882   1.000000
      4        -10.287381   1.000000
      5        -10.257515   1.000000
      6        -10.241353   1.000000
      7        -10.178850   1.000000
      8        -10.140168   1.000000
      9        -10.121058   1.000000
     10        -10.102612   1.000000
     11        -10.095931   1.000000
     12        -10.081707   1.000000
     13        -10.078257   1.000000
     14        -10.037462   1.000000
     15        -10.029443   1.000000
     16         -9.977174   1.000000
     17         -9.930163   1.000000
     18         -9.909971   1.000000
     19         -9.900412   1.000000
     20         -9.809757   1.000000
     21         -6.049060   1.000000
     22          0.627196   1.000000
     23          1.207258   1.000000
     24          2.728456   1.000000
     25          3.042958   1.000000
     26          4.097615   1.000000
     27          5.620939   0.000000
     28          5.683972   0.000000
     29          5.780841   0.000000
     30          9.630380   0.000000
     31         10.117014   0.000000
     32         11.060481   0.000000
 
  0.1111111E+00 -0.6518001E-17  0.0000000E+00  0.7054674E-02
      1        -10.332766   1.000000
      2        -10.326924   1.000000
      3        -10.310043   1.000000
      4        -10.292259   1.000000
      5        -10.250278   1.000000
      6        -10.238605   1.000000
      7        -10.185382   1.000000
      8        -10.165584   1.000000
      9        -10.122571   1.000000
     10        -10.117069   1.000000
     11        -10.075684   1.000000
     12        -10.072458   1.000000
     13        -10.072394   1.000000
     14        -10.039236   1.000000
     15        -10.016786   1.000000
     16         -9.966030   1.000000
     17         -9.931830   1.000000
     18         -9.913117   1.000000
     19         -9.905037   1.000000
     20         -9.811645   1.000000
     21         -5.932287   1.000000
     22          0.542451   1.000000
     23          1.271469   1.000000
     24          1.399425   1.000000
     25          3.739141   1.000000
     26          4.477156   0.999778
     27          4.593255   0.969290
     28          6.242389   0.000000
     29          7.217588   0.000000
     30          9.043589   0.000000
     31          9.081420   0.000000
     32         10.981829   0.000000
 
  0.2222222E+00 -0.1235175E-16  0.0000000E+00  0.7054674E-02
      1        -10.333967   1.000000
      2        -10.317403   1.000000
      3        -10.313838   1.000000
      4        -10.301646   1.000000
      5        -10.247305   1.000000
      6        -10.218735   1.000000
      7        -10.210343   1.000000
      8        -10.184960   1.000000
      9        -10.151696   1.000000
     10        -10.124194   1.000000
     11        -10.081332   1.000000
     12        -10.056592   1.000000
     13        -10.041925   1.000000
     14        -10.017152   1.000000
     15         -9.995307   1.000000
     16         -9.953420   1.000000
     17         -9.935105   1.000000
     18         -9.927970   1.000000
     19         -9.905277   1.000000
     20         -9.818851   1.000000
     21         -5.581540   1.000000
     22         -0.515535   1.000000
     23          1.033116   1.000000
     24          1.412735   1.000000
     25          3.295923   1.000000
     26          3.874401   1.000000
     27          6.063471   0.000000
     28          7.072072   0.000000
     29          7.677017   0.000000
     30          8.008523   0.000000
     31          9.194405   0.000000
     32         10.259311   0.000000
 
  0.3333333E+00 -0.1118138E-16  0.0000000E+00  0.7054674E-02
      1        -10.333658   1.000000
      2        -10.317971   1.000000
      3        -10.315129   1.000000
      4        -10.292169   1.000000
      5        -10.253604   1.000000
      6        -10.248986   1.000000
      7        -10.185994   1.000000
      8        -10.185257   1.000000
      9        -10.182664   1.000000
     10        -10.124654   1.000000
     11        -10.097356   1.000000
     12        -10.041926   1.000000
     13        -10.026949   1.000000
     14         -9.978888   1.000000
     15         -9.972045   1.000000
     16         -9.964513   1.000000
     17         -9.954953   1.000000
     18         -9.921662   1.000000
     19         -9.896794   1.000000
     20         -9.833687   1.000000
     21         -4.996828   1.000000
     22         -1.903466   1.000000
     23          1.154785   1.000000
     24          1.479372   1.000000
     25          3.207545   1.000000
     26          3.583716   1.000000
     27          6.392724   0.000000
     28          6.562114   0.000000
     29          7.521253   0.000000
     30          8.597799   0.000000
     31          9.799513   0.000000
     32         10.301931   0.000000
 
  0.4444444E+00 -0.2470350E-16  0.0000000E+00  0.7054674E-02
      1        -10.333243   1.000000
      2        -10.325664   1.000000
      3        -10.302696   1.000000
      4        -10.285539   1.000000
      5        -10.265012   1.000000
      6        -10.260595   1.000000
      7        -10.206321   1.000000
      8        -10.198384   1.000000
      9        -10.151035   1.000000
     10        -10.120921   1.000000
     11        -10.096390   1.000000
     12        -10.055322   1.000000
     13        -10.018327   1.000000
     14         -9.989923   1.000000
     15         -9.954927   1.000000
     16         -9.949144   1.000000
     17         -9.946427   1.000000
     18         -9.929233   1.000000
     19         -9.879238   1.000000
     20         -9.855938   1.000000
     21         -4.181226   1.000000
     22         -3.143584   1.000000
     23          1.285636   1.000000
     24          1.404332   1.000000
     25          3.445626   1.000000
     26          3.572302   1.000000
     27          5.683804   0.000000
     28          5.741537   0.000000
     29          8.534132   0.000000
     30          8.909465   0.000000
     31          9.885307   0.000000
     32         10.216226   0.000000
 
  0.1111111E+00  0.1111111E+00  0.0000000E+00  0.3527337E-02
      1        -10.331821   1.000000
      2        -10.324342   1.000000
      3        -10.319305   1.000000
      4        -10.294363   1.000000
      5        -10.238331   1.000000
      6        -10.215845   1.000000
      7        -10.208038   1.000000
      8        -10.184444   1.000000
      9        -10.127288   1.000000
     10        -10.090838   1.000000
     11        -10.083408   1.000000
     12        -10.083086   1.000000
     13        -10.077251   1.000000
     14        -10.025567   1.000000
     15        -10.011425   1.000000
     16         -9.951152   1.000000
     17         -9.936397   1.000000
     18         -9.923429   1.000000
     19         -9.901477   1.000000
     20         -9.810361   1.000000
     21         -5.696433   1.000000
     22          0.010925   1.000000
     23          0.464854   1.000000
     24          1.575868   1.000000
     25          3.639335   1.000000
     26          4.342482   1.000000
     27          5.763134   0.000000
     28          6.386326   0.000000
     29          7.892266   0.000000
     30          8.137572   0.000000
     31          8.919235   0.000000
     32         10.325489   0.000000
 
  0.2222222E+00  0.1111111E+00  0.0000000E+00  0.7054674E-02
      1        -10.340601   1.000000
      2        -10.324865   1.000000
      3        -10.305627   1.000000
      4        -10.301585   1.000000
      5        -10.253517   1.000000
      6        -10.232353   1.000000
      7        -10.180957   1.000000
      8        -10.171135   1.000000
      9        -10.156351   1.000000
     10        -10.107243   1.000000
     11        -10.091499   1.000000
     12        -10.065381   1.000000
     13        -10.064053   1.000000
     14        -10.009697   1.000000
     15         -9.980629   1.000000
     16         -9.969264   1.000000
     17         -9.958715   1.000000
     18         -9.903975   1.000000
     19         -9.897180   1.000000
     20         -9.815329   1.000000
     21         -5.225195   1.000000
     22         -1.303402   1.000000
     23          0.272327   1.000000
     24          2.003874   1.000000
     25          3.330219   1.000000
     26          4.143974   1.000000
     27          6.024432   0.000000
     28          6.933565   0.000000
     29          7.619020   0.000000
     30          8.112698   0.000000
     31          9.608551   0.000000
     32          9.670877   0.000000
 
  0.3333333E+00  0.1111111E+00  0.0000000E+00  0.7054674E-02
      1        -10.350834   1.000000
      2        -10.311850   1.000000
      3        -10.308803   1.000000
      4        -10.289627   1.000000
      5        -10.284611   1.000000
      6        -10.232826   1.000000
      7        -10.191041   1.000000
      8        -10.171697   1.000000
      9        -10.141836   1.000000
     10        -10.116527   1.000000
     11        -10.106333   1.000000
     12        -10.056880   1.000000
     13        -10.043391   1.000000
     14         -9.986944   1.000000
     15         -9.985169   1.000000
     16         -9.979323   1.000000
     17         -9.949254   1.000000
     18         -9.904023   1.000000
     19         -9.884160   1.000000
     20         -9.829929   1.000000
     21         -4.518919   1.000000
     22         -2.554467   1.000000
     23          0.122997   1.000000
     24          2.477789   1.000000
     25          3.470580   1.000000
     26          3.708297   1.000000
     27          5.876075   0.000000
     28          5.965234   0.000000
     29          7.776480   0.000000
     30          8.693500   0.000000
     31          9.626922   0.000000
     32         10.108628   0.000000
 
  0.4444444E+00  0.1111111E+00  0.0000000E+00  0.7054674E-02
      1        -10.351495   1.000000
      2        -10.327010   1.000000
      3        -10.295077   1.000000
      4        -10.285914   1.000000
      5        -10.277304   1.000000
      6        -10.236988   1.000000
      7        -10.212815   1.000000
      8        -10.183668   1.000000
      9        -10.150087   1.000000
     10        -10.127622   1.000000
     11        -10.082794   1.000000
     12        -10.059987   1.000000
     13        -10.013747   1.000000
     14        -10.006558   1.000000
     15         -9.973272   1.000000
     16         -9.965745   1.000000
     17         -9.929363   1.000000
     18         -9.914931   1.000000
     19         -9.873384   1.000000
     20         -9.854943   1.000000
     21         -3.652662   1.000000
     22         -3.582336   1.000000
     23          0.089979   1.000000
     24          2.597039   1.000000
     25          3.609120   1.000000
     26          3.610767   1.000000
     27          5.501488   0.000000
     28          5.812074   0.000000
     29          7.563684   0.000000
     30          8.582461   0.000000
     31         10.025060   0.000000
     32         10.663852   0.000000
 
 -0.4444444E+00  0.1111111E+00  0.0000000E+00  0.7054674E-02
      1        -10.343868   1.000000
      2        -10.337383   1.000000
      3        -10.293381   1.000000
      4        -10.279116   1.000000
      5        -10.274626   1.000000
      6        -10.235652   1.000000
      7        -10.212241   1.000000
      8        -10.185397   1.000000
      9        -10.183913   1.000000
     10        -10.111977   1.000000
     11        -10.107310   1.000000
     12        -10.033123   1.000000
     13        -10.020474   1.000000
     14         -9.976402   1.000000
     15         -9.973252   1.000000
     16         -9.952944   1.000000
     17         -9.935742   1.000000
     18         -9.925638   1.000000
     19         -9.885511   1.000000
     20         -9.858167   1.000000
     21         -4.556033   1.000000
     22         -2.428541   1.000000
     23          0.214592   1.000000
     24          2.189046   1.000000
     25          3.276764   1.000000
     26          3.978775   1.000000
     27          6.010953   0.000000
     28          6.266236   0.000000
     29          6.811261   0.000000
     30          8.644349   0.000000
     31          9.467184   0.000000
     32         10.511159   0.000000
 
 -0.3333333E+00  0.1111111E+00  0.0000000E+00  0.7054674E-02
      1        -10.340183   1.000000
      2        -10.332080   1.000000
      3        -10.297293   1.000000
      4        -10.290694   1.000000
      5        -10.269490   1.000000
      6        -10.224572   1.000000
      7        -10.210478   1.000000
      8        -10.199003   1.000000
      9        -10.162056   1.000000
     10        -10.131324   1.000000
     11        -10.088727   1.000000
     12        -10.051239   1.000000
     13        -10.005167   1.000000
     14         -9.995170   1.000000
     15         -9.960436   1.000000
     16         -9.954634   1.000000
     17         -9.943603   1.000000
     18         -9.927268   1.000000
     19         -9.908989   1.000000
     20         -9.839882   1.000000
     21         -5.243256   1.000000
     22         -1.095727   1.000000
     23          0.479944   1.000000
     24          1.756399   1.000000
     25          2.860515   1.000000
     26          4.483903   0.999683
     27          5.455865   0.000000
     28          7.110968   0.000000
     29          7.273744   0.000000
     30          8.838619   0.000000
     31          9.184144   0.000000
     32          9.869251   0.000000
 
 -0.2222222E+00  0.1111111E+00  0.0000000E+00  0.7054674E-02
      1        -10.339271   1.000000
      2        -10.322473   1.000000
      3        -10.305234   1.000000
      4        -10.296986   1.000000
      5        -10.258949   1.000000
      6        -10.243545   1.000000
      7        -10.199507   1.000000
      8        -10.174933   1.000000
      9        -10.140960   1.000000
     10        -10.137257   1.000000
     11        -10.073499   1.000000
     12        -10.056150   1.000000
     13        -10.029709   1.000000
     14        -10.024599   1.000000
     15         -9.982744   1.000000
     16         -9.967519   1.000000
     17         -9.938190   1.000000
     18         -9.915832   1.000000
     19         -9.908641   1.000000
     20         -9.825503   1.000000
     21         -5.704084   1.000000
     22          0.206641   1.000000
     23          0.798435   1.000000
     24          1.646321   1.000000
     25          2.727437   1.000000
     26          4.062225   1.000000
     27          5.155035   0.000000
     28          7.747532   0.000000
     29          8.110928   0.000000
     30          8.690103   0.000000
     31          8.724945   0.000000
     32          9.778534   0.000000
 
 -0.1111111E+00  0.1111111E+00  0.0000000E+00  0.3527337E-02
      1        -10.335500   1.000000
      2        -10.325978   1.000000
      3        -10.300304   1.000000
      4        -10.299217   1.000000
      5        -10.257021   1.000000
      6        -10.245785   1.000000
      7        -10.191445   1.000000
      8        -10.145135   1.000000
      9        -10.135572   1.000000
     10        -10.134359   1.000000
     11        -10.070971   1.000000
     12        -10.059409   1.000000
     13        -10.049450   1.000000
     14        -10.049328   1.000000
     15        -10.002515   1.000000
     16         -9.980748   1.000000
     17         -9.931837   1.000000
     18         -9.914718   1.000000
     19         -9.900120   1.000000
     20         -9.816564   1.000000
     21         -5.934320   1.000000
     22          0.623836   1.000000
     23          1.051470   1.000000
     24          2.672210   1.000000
     25          2.752529   1.000000
     26          3.048115   1.000000
     27          5.907088   0.000000
     28          6.244554   0.000000
     29          7.182089   0.000000
     30          9.318254   0.000000
     31          9.801357   0.000000
     32         10.432224   0.000000
 
  0.2222222E+00  0.2222222E+00  0.0000000E+00  0.3527337E-02
      1        -10.359817   1.000000
      2        -10.308815   1.000000
      3        -10.308297   1.000000
      4        -10.294683   1.000000
      5        -10.291578   1.000000
      6        -10.217436   1.000000
      7        -10.172521   1.000000
      8        -10.167774   1.000000
      9        -10.119562   1.000000
     10        -10.115027   1.000000
     11        -10.090620   1.000000
     12        -10.085510   1.000000
     13        -10.066815   1.000000
     14        -10.004552   1.000000
     15         -9.999066   1.000000
     16         -9.976242   1.000000
     17         -9.951262   1.000000
     18         -9.893870   1.000000
     19         -9.883367   1.000000
     20         -9.818832   1.000000
     21         -4.633675   1.000000
     22         -2.156920   1.000000
     23         -0.472712   1.000000
     24          2.668048   1.000000
     25          3.415724   1.000000
     26          4.843240   0.047971
     27          5.059914   0.000001
     28          6.194835   0.000000
     29          7.791069   0.000000
     30          8.262375   0.000000
     31          8.766587   0.000000
     32         10.641347   0.000000
 
  0.3333333E+00  0.2222222E+00  0.0000000E+00  0.7054674E-02
      1        -10.370306   1.000000
      2        -10.323500   1.000000
      3        -10.310342   1.000000
      4        -10.285472   1.000000
      5        -10.279810   1.000000
      6        -10.209272   1.000000
      7        -10.195805   1.000000
      8        -10.169240   1.000000
      9        -10.148831   1.000000
     10        -10.111285   1.000000
     11        -10.067657   1.000000
     12        -10.063424   1.000000
     13        -10.055353   1.000000
     14        -10.020885   1.000000
     15         -9.999260   1.000000
     16         -9.980859   1.000000
     17         -9.929146   1.000000
     18         -9.894054   1.000000
     19         -9.875092   1.000000
     20         -9.833510   1.000000
     21         -3.809125   1.000000
     22         -3.085882   1.000000
     23         -0.902120   1.000000
     24          3.438288   1.000000
     25          3.716515   1.000000
     26          4.046451   1.000000
     27          5.301296   0.000000
     28          5.634449   0.000000
     29          7.685669   0.000000
     30          7.713599   0.000000
     31          8.921355   0.000000
     32         10.998648   0.000000
 
  0.4444444E+00  0.2222222E+00  0.0000000E+00  0.7054674E-02
      1        -10.370955   1.000000
      2        -10.338808   1.000000
      3        -10.306805   1.000000
      4        -10.273101   1.000000
      5        -10.262791   1.000000
      6        -10.223791   1.000000
      7        -10.211304   1.000000
      8        -10.178904   1.000000
      9        -10.167193   1.000000
     10        -10.113287   1.000000
     11        -10.090947   1.000000
     12        -10.040579   1.000000
     13        -10.031335   1.000000
     14         -9.999813   1.000000
     15         -9.997073   1.000000
     16         -9.961879   1.000000
     17         -9.920908   1.000000
     18         -9.903356   1.000000
     19         -9.871346   1.000000
     20         -9.860040   1.000000
     21         -3.972902   1.000000
     22         -2.759966   1.000000
     23         -0.999503   1.000000
     24          3.191296   1.000000
     25          3.635398   1.000000
     26          4.260612   1.000000
     27          5.485293   0.000000
     28          5.796525   0.000000
     29          7.003885   0.000000
     30          7.479925   0.000000
     31          8.980898   0.000000
     32         11.310327   0.000000
 
 -0.4444444E+00  0.2222222E+00  0.0000000E+00  0.7054674E-02
      1        -10.363831   1.000000
      2        -10.343665   1.000000
      3        -10.295694   1.000000
      4        -10.278761   1.000000
      5        -10.263472   1.000000
      6        -10.239632   1.000000
      7        -10.202779   1.000000
      8        -10.199558   1.000000
      9        -10.157366   1.000000
     10        -10.118242   1.000000
     11        -10.098238   1.000000
     12        -10.051992   1.000000
     13        -10.017320   1.000000
     14         -9.990082   1.000000
     15         -9.962491   1.000000
     16         -9.944447   1.000000
     17         -9.923330   1.000000
     18         -9.921885   1.000000
     19         -9.893910   1.000000
     20         -9.861801   1.000000
     21         -4.715025   1.000000
     22         -1.510286   1.000000
     23         -0.824199   1.000000
     24          2.480961   1.000000
     25          3.170880   1.000000
     26          4.696267   0.660435
     27          5.267992   0.000000
     28          6.722220   0.000000
     29          6.915231   0.000000
     30          7.608986   0.000000
     31          8.827282   0.000000
     32         11.574157   0.000000
 
 -0.3333333E+00  0.2222222E+00  0.0000000E+00  0.7054674E-02
      1        -10.351886   1.000000
      2        -10.344157   1.000000
      3        -10.283897   1.000000
      4        -10.282244   1.000000
      5        -10.279630   1.000000
      6        -10.249792   1.000000
      7        -10.211834   1.000000
      8        -10.178472   1.000000
      9        -10.146524   1.000000
     10        -10.135999   1.000000
     11        -10.073482   1.000000
     12        -10.060519   1.000000
     13        -10.014376   1.000000
     14        -10.003130   1.000000
     15         -9.956983   1.000000
     16         -9.945809   1.000000
     17         -9.935718   1.000000
     18         -9.924166   1.000000
     19         -9.908533   1.000000
     20         -9.847507   1.000000
     21         -5.263273   1.000000
     22         -0.423112   1.000000
     23         -0.162876   1.000000
     24          2.002949   1.000000
     25          2.758493   1.000000
     26          3.616042   1.000000
     27          5.889288   0.000000
     28          7.570857   0.000000
     29          7.817967   0.000000
     30          8.189147   0.000000
     31          8.806436   0.000000
     32         10.095594   0.000000
 
 -0.2222222E+00  0.2222222E+00  0.0000000E+00  0.3527337E-02
      1        -10.343065   1.000000
      2        -10.337075   1.000000
      3        -10.298310   1.000000
      4        -10.285470   1.000000
      5        -10.266115   1.000000
      6        -10.253912   1.000000
      7        -10.213287   1.000000
      8        -10.154551   1.000000
      9        -10.149604   1.000000
     10        -10.141764   1.000000
     11        -10.057836   1.000000
     12        -10.055639   1.000000
     13        -10.026927   1.000000
     14        -10.024332   1.000000
     15         -9.969953   1.000000
     16         -9.965304   1.000000
     17         -9.935448   1.000000
     18         -9.926486   1.000000
     19         -9.900062   1.000000
     20         -9.834706   1.000000
     21         -5.596240   1.000000
     22          0.149107   1.000000
     23          0.590849   1.000000
     24          2.228227   1.000000
     25          2.573811   1.000000
     26          2.662684   1.000000
     27          6.439171   0.000000
     28          7.241276   0.000000
     29          8.404414   0.000000
     30          8.677717   0.000000
     31          9.257609   0.000000
     32          9.900808   0.000000
 
  0.3333333E+00  0.3333333E+00  0.0000000E+00  0.3527337E-02
      1        -10.381285   1.000000
      2        -10.337257   1.000000
      3        -10.317555   1.000000
      4        -10.272655   1.000000
      5        -10.259547   1.000000
      6        -10.222744   1.000000
      7        -10.188330   1.000000
      8        -10.173729   1.000000
      9        -10.172396   1.000000
     10        -10.086849   1.000000
     11        -10.080276   1.000000
     12        -10.065199   1.000000
     13        -10.048527   1.000000
     14        -10.012436   1.000000
     15        -10.006632   1.000000
     16         -9.963735   1.000000
     17         -9.920851   1.000000
     18         -9.888930   1.000000
     19         -9.875854   1.000000
     20         -9.848559   1.000000
     21         -3.597522   1.000000
     22         -2.872375   1.000000
     23         -1.595842   1.000000
     24          3.822687   1.000000
     25          3.829665   1.000000
     26          4.550166   0.993428
     27          4.626841   0.918565
     28          5.802845   0.000000
     29          6.931106   0.000000
     30          7.353968   0.000000
     31          9.135530   0.000000
     32         10.252168   0.000000
 
  0.4444444E+00  0.3333333E+00  0.0000000E+00  0.7054674E-02
      1        -10.383384   1.000000
      2        -10.341279   1.000000
      3        -10.315781   1.000000
      4        -10.271737   1.000000
      5        -10.254047   1.000000
      6        -10.242457   1.000000
      7        -10.186447   1.000000
      8        -10.183958   1.000000
      9        -10.163881   1.000000
     10        -10.099520   1.000000
     11        -10.090877   1.000000
     12        -10.062050   1.000000
     13        -10.052288   1.000000
     14         -9.997787   1.000000
     15         -9.968301   1.000000
     16         -9.939832   1.000000
     17         -9.925537   1.000000
     18         -9.895528   1.000000
     19         -9.877483   1.000000
     20         -9.874317   1.000000
     21         -4.156667   1.000000
     22         -1.820665   1.000000
     23         -1.724004   1.000000
     24          3.216937   1.000000
     25          3.576603   1.000000
     26          4.043773   1.000000
     27          5.602737   0.000000
     28          6.509773   0.000000
     29          6.557020   0.000000
     30          6.714114   0.000000
     31          9.499035   0.000000
     32         11.070875   0.000000
 
 -0.4444444E+00  0.3333333E+00  0.0000000E+00  0.7054674E-02
      1        -10.378330   1.000000
      2        -10.341292   1.000000
      3        -10.304023   1.000000
      4        -10.282329   1.000000
      5        -10.264831   1.000000
      6        -10.249314   1.000000
      7        -10.193860   1.000000
      8        -10.177044   1.000000
      9        -10.153442   1.000000
     10        -10.126218   1.000000
     11        -10.076391   1.000000
     12        -10.072412   1.000000
     13        -10.032052   1.000000
     14         -9.986889   1.000000
     15         -9.952169   1.000000
     16         -9.937325   1.000000
     17         -9.914613   1.000000
     18         -9.914129   1.000000
     19         -9.903043   1.000000
     20         -9.869581   1.000000
     21         -4.681454   1.000000
     22         -1.637201   1.000000
     23         -0.421047   1.000000
     24          2.370407   1.000000
     25          3.191952   1.000000
     26          3.325329   1.000000
     27          6.154500   0.000000
     28          6.731799   0.000000
     29          7.031372   0.000000
     30          7.791348   0.000000
     31          9.345680   0.000000
     32         10.689562   0.000000
 
 -0.3333333E+00  0.3333333E+00  0.0000000E+00  0.3527337E-02
      1        -10.367740   1.000000
      2        -10.343466   1.000000
      3        -10.288082   1.000000
      4        -10.285010   1.000000
      5        -10.267162   1.000000
      6        -10.263827   1.000000
      7        -10.207145   1.000000
      8        -10.162521   1.000000
      9        -10.153616   1.000000
     10        -10.136965   1.000000
     11        -10.069958   1.000000
     12        -10.049156   1.000000
     13        -10.040524   1.000000
     14         -9.994089   1.000000
     15         -9.944442   1.000000
     16         -9.939204   1.000000
     17         -9.931821   1.000000
     18         -9.929756   1.000000
     19         -9.900751   1.000000
     20         -9.857958   1.000000
     21         -5.068112   1.000000
     22         -1.148649   1.000000
     23          0.518291   1.000000
     24          1.796395   1.000000
     25          2.850101   1.000000
     26          2.885486   1.000000
     27          6.435138   0.000000
     28          7.192713   0.000000
     29          8.120596   0.000000
     30          8.253138   0.000000
     31          8.823949   0.000000
     32         10.035711   0.000000
 
  0.4444444E+00  0.4444444E+00  0.0000000E+00  0.3527337E-02
      1        -10.388085   1.000000
      2        -10.333985   1.000000
      3        -10.319501   1.000000
      4        -10.280493   1.000000
      5        -10.275332   1.000000
      6        -10.230334   1.000000
      7        -10.179124   1.000000
      8        -10.169918   1.000000
      9        -10.167656   1.000000
     10        -10.119002   1.000000
     11        -10.083570   1.000000
     12        -10.077031   1.000000
     13        -10.041983   1.000000
     14         -9.982125   1.000000
     15         -9.950024   1.000000
     16         -9.941253   1.000000
     17         -9.913457   1.000000
     18         -9.895167   1.000000
     19         -9.894388   1.000000
     20         -9.885457   1.000000
     21         -4.310556   1.000000
     22         -2.231896   1.000000
     23         -0.512054   1.000000
     24          2.540569   1.000000
     25          3.234744   1.000000
     26          3.468032   1.000000
     27          6.030936   0.000000
     28          6.217055   0.000000