Automatically generated mesh
     100
Reciprocal lattice
    0.00000000000000    0.00000000000000    0.00000000000000             1
    0.11111111111111   -0.00000000000000    0.00000000000000             4
    0.22222222222222   -0.00000000000000    0.00000000000000             4
    0.33333333333334   -0.00000000000000    0.00000000000000             4
    0.44444444444444   -0.00000000000000    0.00000000000000             4
    0.11111111111111    0.11111111111111    0.00000000000000             2
    0.22222222222222    0.11111111111111    0.00000000000000             4
    0.33333333333334    0.11111111111111    0.00000000000000             4
    0.44444444444444    0.11111111111111    0.00000000000000             4
   -0.44444444444444    0.11111111111111    0.00000000000000             4
   -0.33333333333334    0.11111111111111    0.00000000000000             4
   -0.22222222222222    0.11111111111111    0.00000000000000             4
   -0.11111111111111    0.11111111111111    0.00000000000000             2
    0.22222222222222    0.22222222222222    0.00000000000000             2
    0.33333333333334    0.22222222222222    0.00000000000000             4
    0.44444444444444    0.22222222222222    0.00000000000000             4
   -0.44444444444444    0.22222222222222    0.00000000000000             4
   -0.33333333333334    0.22222222222222    0.00000000000000             4
   -0.22222222222222    0.22222222222222    0.00000000000000             2
    0.33333333333334    0.33333333333334    0.00000000000000             2
    0.44444444444444    0.33333333333334    0.00000000000000             4
   -0.44444444444444    0.33333333333334    0.00000000000000             4
   -0.33333333333334    0.33333333333334    0.00000000000000             2
    0.44444444444444    0.44444444444444    0.00000000000000             2
   -0.44444444444444    0.44444444444444    0.00000000000000             2
    0.00000000000000    0.00000000000000    0.14285714285715             2
    0.11111111111111   -0.00000000000000    0.14285714285715             8
    0.22222222222222   -0.00000000000000    0.14285714285715             8
    0.33333333333334   -0.00000000000000    0.14285714285715             8
    0.44444444444444   -0.00000000000000    0.14285714285715             8
    0.11111111111111    0.11111111111111    0.14285714285715             4
    0.22222222222222    0.11111111111111    0.14285714285715             8
    0.33333333333334    0.11111111111111    0.14285714285715             8
    0.44444444444444    0.11111111111111    0.14285714285715             8
   -0.44444444444444    0.11111111111111    0.14285714285715             8
   -0.33333333333334    0.11111111111111    0.14285714285715             8
   -0.22222222222222    0.11111111111111    0.14285714285715             8
   -0.11111111111111    0.11111111111111    0.14285714285715             4
    0.22222222222222    0.22222222222222    0.14285714285715             4
    0.33333333333334    0.22222222222222    0.14285714285715             8
    0.44444444444444    0.22222222222222    0.14285714285715             8
   -0.44444444444444    0.22222222222222    0.14285714285715             8
   -0.33333333333334    0.22222222222222    0.14285714285715             8
   -0.22222222222222    0.22222222222222    0.14285714285715             4
    0.33333333333334    0.33333333333334    0.14285714285715             4
    0.44444444444444    0.33333333333334    0.14285714285715             8
   -0.44444444444444    0.33333333333334    0.14285714285715             8
   -0.33333333333334    0.33333333333334    0.14285714285715             4
    0.44444444444444    0.44444444444444    0.14285714285715             4
   -0.44444444444444    0.44444444444444    0.14285714285715             4
    0.00000000000000    0.00000000000000    0.28571428571428             2
    0.11111111111111   -0.00000000000000    0.28571428571428             8
    0.22222222222222   -0.00000000000000    0.28571428571428             8
    0.33333333333334   -0.00000000000000    0.28571428571428             8
    0.44444444444444   -0.00000000000000    0.28571428571428             8
    0.11111111111111    0.11111111111111    0.28571428571428             4
    0.22222222222222    0.11111111111111    0.28571428571428             8
    0.33333333333334    0.11111111111111    0.28571428571428             8
    0.44444444444444    0.11111111111111    0.28571428571428             8
   -0.44444444444444    0.11111111111111    0.28571428571428             8
   -0.33333333333334    0.11111111111111    0.28571428571428             8
   -0.22222222222222    0.11111111111111    0.28571428571428             8
   -0.11111111111111    0.11111111111111    0.28571428571428             4
    0.22222222222222    0.22222222222222    0.28571428571428             4
    0.33333333333334    0.22222222222222    0.28571428571428             8
    0.44444444444444    0.22222222222222    0.28571428571428             8
   -0.44444444444444    0.22222222222222    0.28571428571428             8
   -0.33333333333334    0.22222222222222    0.28571428571428             8
   -0.22222222222222    0.22222222222222    0.28571428571428             4
    0.33333333333334    0.33333333333334    0.28571428571428             4
    0.44444444444444    0.33333333333334    0.28571428571428             8
   -0.44444444444444    0.33333333333334    0.28571428571428             8
   -0.33333333333334    0.33333333333334    0.28571428571428             4
    0.44444444444444    0.44444444444444    0.28571428571428             4
   -0.44444444444444    0.44444444444444    0.28571428571428             4
    0.00000000000000    0.00000000000000    0.42857142857143             2
    0.11111111111111   -0.00000000000000    0.42857142857143             8
    0.22222222222222   -0.00000000000000    0.42857142857143             8
    0.33333333333334   -0.00000000000000    0.42857142857143             8
    0.44444444444444   -0.00000000000000    0.42857142857143             8
    0.11111111111111    0.11111111111111    0.42857142857143             4
    0.22222222222222    0.11111111111111    0.42857142857143             8
    0.33333333333334    0.11111111111111    0.42857142857143             8
    0.44444444444444    0.11111111111111    0.42857142857143             8
   -0.44444444444444    0.11111111111111    0.42857142857143             8
   -0.33333333333334    0.11111111111111    0.42857142857143             8
   -0.22222222222222    0.11111111111111    0.42857142857143             8
   -0.11111111111111    0.11111111111111    0.42857142857143             4
    0.22222222222222    0.22222222222222    0.42857142857143             4
    0.33333333333334    0.22222222222222    0.42857142857143             8
    0.44444444444444    0.22222222222222    0.42857142857143             8
   -0.44444444444444    0.22222222222222    0.42857142857143             8
   -0.33333333333334    0.22222222222222    0.42857142857143             8
   -0.22222222222222    0.22222222222222    0.42857142857143             4
    0.33333333333334    0.33333333333334    0.42857142857143             4
    0.44444444444444    0.33333333333334    0.42857142857143             8
   -0.44444444444444    0.33333333333334    0.42857142857143             8
   -0.33333333333334    0.33333333333334    0.42857142857143             4
    0.44444444444444    0.44444444444444    0.42857142857143             4
   -0.44444444444444    0.44444444444444    0.42857142857143             4
