 vasp.6.3.1 04May22 (build Jun 07 2022 20:23:04) complex                        
  
 executed on             LinuxIFC date 2024.04.20  16:34:20
 running on   32 total cores
 distrk:  each k-point on    8 cores,    4 groups
 distr:  one band on NCORE=   1 cores,    8 groups


--------------------------------------------------------------------------------------------------------


 INCAR:
   ALGO = Normal
   PREC = Normal
   LREAL = False
   EDIFF = 1e-07
   ENCUT = 400.0
   LASPH = True
   NELM = 100
   ISIF = 3
   IBRION = 2
   EDIFFG = -0.005
   NSW = 20
   ISMEAR = 0
   SIGMA = 0.1
   LWAVE = False
   LCHARG = False
   LORBIT = 10
   KPAR = 4

 POTCAR:    PAW_PBE Ga_d 06Jul2010                
 -----------------------------------------------------------------------------
|                                                                             |
|           W    W    AA    RRRRR   N    N  II  N    N   GGGG   !!!           |
|           W    W   A  A   R    R  NN   N  II  NN   N  G    G  !!!           |
|           W    W  A    A  R    R  N N  N  II  N N  N  G       !!!           |
|           W WW W  AAAAAA  RRRRR   N  N N  II  N  N N  G  GGG   !            |
|           WW  WW  A    A  R   R   N   NN  II  N   NN  G    G                |
|           W    W  A    A  R    R  N    N  II  N    N   GGGG   !!!           |
|                                                                             |
|     For optimal performance we recommend to set                             |
|       NCORE = 2 up to number-of-cores-per-socket                            |
|     NCORE specifies how many cores store one orbital (NPAR=cpu/NCORE).      |
|     This setting can greatly improve the performance of VASP for DFT.       |
|     The default, NCORE=1 might be grossly inefficient on modern             |
|     multi-core architectures or massively parallel machines. Do your        |
|     own testing! More info at https://www.vasp.at/wiki/index.php/NCORE      |
|     Unfortunately you need to use the default for GW and RPA                |
|     calculations (for HF NCORE is supported but not extensively tested      |
|     yet).                                                                   |
|                                                                             |
 -----------------------------------------------------------------------------

 POTCAR:    PAW_PBE Ga_d 06Jul2010                
   SHA256 =  a60ddf36e14f00ea098d9e3914b3745f1b7105e68786148f49ae384e44b4226c Ga_d/POTCAR           
   COPYR  = (c) Copyright 06Jul2010 Georg Kresse                                                    
   COPYR  = This file is part of the software VASP. Any use, copying, and all other rights are regul
   COPYR  = If you do not have a valid VASP license, you may not use, copy or distribute this file. 
   VRHFIN =Ga: s2p1                                                                                 
   LEXCH  = PE                                                                                      
   EATOM  =  2148.8298 eV,  157.9345 Ry                                                             
                                                                                                    
   TITEL  = PAW_PBE Ga_d 06Jul2010                                                                  
   LULTRA =        F    use ultrasoft PP ?                                                          
   IUNSCR =        1    unscreen: 0-lin 1-nonlin 2-no                                               
   RPACOR =    1.700    partial core radius                                                         
   POMASS =   69.723; ZVAL   =   13.000    mass and valenz                                          
   RCORE  =    2.300    outmost cutoff radius                                                       
   RWIGS  =    2.300; RWIGS  =    1.217    wigner-seitz radius (au A)                               
   ENMAX  =  282.691; ENMIN  =  212.018 eV                                                          
   ICORE  =        3    local potential                                                             
   LCOR   =        T    correct aug charges                                                         
   LPAW   =        T    paw PP                                                                      
   EAUG   =  490.690                                                                                
   DEXC   =    0.000                                                                                
   RMAX   =    2.341    core radius for proj-oper                                                   
   RAUG   =    1.300    factor for augmentation sphere                                              
   RDEP   =    2.413    radius for radial grids                                                     
   RDEPT  =    1.856    core radius for aug-charge                                                  
                                                                                                    
   Atomic configuration                                                                             
    9 entries                                                                                       
     n  l   j            E        occ.                                                              
     1  0  0.50    -10228.7831   2.0000                                                             
     2  0  0.50     -1262.1604   2.0000                                                             
     2  1  1.50     -1098.6333   6.0000                                                             
     3  0  0.50      -148.1110   2.0000                                                             
     3  1  1.50       -98.8436   6.0000                                                             
     3  2  2.50       -19.1549  10.0000                                                             
     4  0  0.50        -8.9483   2.0000                                                             
     4  1  0.50        -2.5791   1.0000                                                             
     4  3  2.50        -2.7416   0.0000                                                             
   Description                                                                                      
     l       E           TYP  RCUT    TYP  RCUT                                                     
     2    -19.1549037     23  2.300                                                                 
     2     -5.4423304     23  2.300                                                                 
     0     -8.9483111     23  2.300                                                                 
     0     68.0291300     23  2.300                                                                 
     1     -2.5790802     23  2.100                                                                 
     1     81.6349560     23  2.300                                                                 
     3      6.8029130     23  2.300                                                                 
  local pseudopotential read in
  partial core-charges read in
  partial kinetic energy density read in
  atomic valenz-charges read in
  non local Contribution for L=           2  read in
    real space projection operators read in
  non local Contribution for L=           2  read in
    real space projection operators read in
  non local Contribution for L=           0  read in
    real space projection operators read in
  non local Contribution for L=           0  read in
    real space projection operators read in
  non local Contribution for L=           1  read in
    real space projection operators read in
  non local Contribution for L=           1  read in
    real space projection operators read in
    PAW grid and wavefunctions read in
 
   number of l-projection  operators is LMAX  =           6
   number of lm-projection operators is LMMAX =          18
 
  PAW_PBE Ga_d 06Jul2010                :
 energy of atom  1       EATOM=-2148.8298
 kinetic energy error for atom=    0.0102 (will be added to EATOM!!)
 
 
 POSCAR: Ga4
  positions in direct lattice
  No initial velocities read in
 exchange correlation table for  LEXCH =        8
   RHO(1)=    0.500       N(1)  =     2000
   RHO(2)=  100.500       N(2)  =     4000

 VTST: version 4.2, (08/11/21)

 CHAIN: initializing optimizer
 
 OPT: Using VASP Conjugate-Gradient optimizer
 CHAIN: Read ICHAIN            0
 
 POSCAR: Ga4
  positions in direct lattice
  No initial velocities read in
 


--------------------------------------------------------------------------------------------------------


 ion  position               nearest neighbor table
   1  0.656  0.344  0.415-   3 2.49   4 2.68   4 2.68   2 2.69   2 2.69   3 2.75   3 2.75
   2  0.844  0.156  0.915-   4 2.49   3 2.68   3 2.68   1 2.69   1 2.69   4 2.75   4 2.75
   3  0.344  0.656  0.585-   1 2.49   2 2.68   2 2.68   4 2.69   4 2.69   1 2.75   1 2.75
   4  0.156  0.844  0.085-   2 2.49   1 2.68   1 2.68   3 2.69   3 2.69   2 2.75   2 2.75
 
  LATTYP: Found a base centered orthorhombic cell.
 ALAT       =     4.4320466608
 B/A-ratio  =     1.7143284495
 C/A-ratio  =     1.0278554985
  
  Lattice vectors:
  
 A1 = (   2.2160233304,  -3.7989918401,   0.0000000000)
 A2 = (   2.2160233304,   3.7989918401,   0.0000000000)
 A3 = (   0.0000000000,   0.0000000000,   4.5555035300)


Analysis of symmetry for initial positions (statically):
=====================================================================
 Subroutine PRICEL returns:
 Original cell was already a primitive cell.
 

 Routine SETGRP: Setting up the symmetry group for a 
 base centered orthorhombic supercell.


 Subroutine GETGRP returns: Found  8 space group operations
 (whereof  4 operations were pure point group operations)
 out of a pool of  8 trial point group operations.


The static configuration has the point symmetry C_2h.
 The point group associated with its full space group is D_2h.


Analysis of symmetry for dynamics (positions and initial velocities):
=====================================================================
 Subroutine PRICEL returns:
 Original cell was already a primitive cell.
 

 Routine SETGRP: Setting up the symmetry group for a 
 base centered orthorhombic supercell.


 Subroutine GETGRP returns: Found  8 space group operations
 (whereof  4 operations were pure point group operations)
 out of a pool of  8 trial point group operations.


The dynamic configuration has the point symmetry C_2h.
 The point group associated with its full space group is D_2h.


 Subroutine INISYM returns: Found  8 space group operations
 (whereof  4 operations are pure point group operations),
 and found     1 'primitive' translations


----------------------------------------------------------------------------------------

                                     Primitive cell                                     

  volume of cell :      76.7024

  direct lattice vectors                    reciprocal lattice vectors
     2.216023330 -3.798991840  0.000000000     0.225629393 -0.131613865  0.000000000
     2.216023330  3.798991840  0.000000000     0.225629393  0.131613865  0.000000000
     0.000000000  0.000000000  4.555503530     0.000000000  0.000000000  0.219514702

  length of vectors
     4.398078944  4.398078944  4.555503530     0.261210323  0.261210323  0.219514702

  position of ions in fractional coordinates (direct lattice)
     0.655695720  0.344304280  0.415401390
     0.844304280  0.155695720  0.915401390
     0.344304280  0.655695720  0.584598610
     0.155695720  0.844304280  0.084598610

  ion indices of the primitive-cell ions
   primitive index   ion index
                 1           1
                 2           2
                 3           3
                 4           4

----------------------------------------------------------------------------------------

 
 
 KPOINTS: Num irrep kpoints: 100                  

Automatic generation of k-mesh.
 Grid dimensions read from file:
 generate k-points for:    9    9    7

 Generating k-lattice:

  Cartesian coordinates                     Fractional coordinates (reciprocal lattice)
     0.025069933 -0.014623763  0.000000000     0.111111111  0.000000000  0.000000000
     0.025069933  0.014623763  0.000000000     0.000000000  0.111111111  0.000000000
     0.000000000  0.000000000  0.031359243     0.000000000  0.000000000  0.142857143

  Length of vectors
     0.029023369  0.029023369  0.031359243

  Shift w.r.t. Gamma in fractional coordinates (k-lattice)
     0.000000000  0.000000000  0.000000000

 
 Subroutine IBZKPT returns following result:
 ===========================================
 
 Found    100 irreducible k-points:
 
 Following reciprocal coordinates:
            Coordinates               Weight
  0.000000  0.000000  0.000000      1.000000
  0.111111 -0.000000  0.000000      4.000000
  0.222222 -0.000000  0.000000      4.000000
  0.333333 -0.000000  0.000000      4.000000
  0.444444 -0.000000  0.000000      4.000000
  0.111111  0.111111  0.000000      2.000000
  0.222222  0.111111  0.000000      4.000000
  0.333333  0.111111  0.000000      4.000000
  0.444444  0.111111  0.000000      4.000000
 -0.444444  0.111111  0.000000      4.000000
 -0.333333  0.111111  0.000000      4.000000
 -0.222222  0.111111  0.000000      4.000000
 -0.111111  0.111111  0.000000      2.000000
  0.222222  0.222222  0.000000      2.000000
  0.333333  0.222222  0.000000      4.000000
  0.444444  0.222222  0.000000      4.000000
 -0.444444  0.222222  0.000000      4.000000
 -0.333333  0.222222  0.000000      4.000000
 -0.222222  0.222222  0.000000      2.000000
  0.333333  0.333333  0.000000      2.000000
  0.444444  0.333333  0.000000      4.000000
 -0.444444  0.333333  0.000000      4.000000
 -0.333333  0.333333  0.000000      2.000000
  0.444444  0.444444  0.000000      2.000000
 -0.444444  0.444444  0.000000      2.000000
  0.000000  0.000000  0.142857      2.000000
  0.111111 -0.000000  0.142857      8.000000
  0.222222 -0.000000  0.142857      8.000000
  0.333333 -0.000000  0.142857      8.000000
  0.444444 -0.000000  0.142857      8.000000
  0.111111  0.111111  0.142857      4.000000
  0.222222  0.111111  0.142857      8.000000
  0.333333  0.111111  0.142857      8.000000
  0.444444  0.111111  0.142857      8.000000
 -0.444444  0.111111  0.142857      8.000000
 -0.333333  0.111111  0.142857      8.000000
 -0.222222  0.111111  0.142857      8.000000
 -0.111111  0.111111  0.142857      4.000000
  0.222222  0.222222  0.142857      4.000000
  0.333333  0.222222  0.142857      8.000000
  0.444444  0.222222  0.142857      8.000000
 -0.444444  0.222222  0.142857      8.000000
 -0.333333  0.222222  0.142857      8.000000
 -0.222222  0.222222  0.142857      4.000000
  0.333333  0.333333  0.142857      4.000000
  0.444444  0.333333  0.142857      8.000000
 -0.444444  0.333333  0.142857      8.000000
 -0.333333  0.333333  0.142857      4.000000
  0.444444  0.444444  0.142857      4.000000
 -0.444444  0.444444  0.142857      4.000000
  0.000000  0.000000  0.285714      2.000000
  0.111111 -0.000000  0.285714      8.000000
  0.222222 -0.000000  0.285714      8.000000
  0.333333 -0.000000  0.285714      8.000000
  0.444444 -0.000000  0.285714      8.000000
  0.111111  0.111111  0.285714      4.000000
  0.222222  0.111111  0.285714      8.000000
  0.333333  0.111111  0.285714      8.000000
  0.444444  0.111111  0.285714      8.000000
 -0.444444  0.111111  0.285714      8.000000
 -0.333333  0.111111  0.285714      8.000000
 -0.222222  0.111111  0.285714      8.000000
 -0.111111  0.111111  0.285714      4.000000
  0.222222  0.222222  0.285714      4.000000
  0.333333  0.222222  0.285714      8.000000
  0.444444  0.222222  0.285714      8.000000
 -0.444444  0.222222  0.285714      8.000000
 -0.333333  0.222222  0.285714      8.000000
 -0.222222  0.222222  0.285714      4.000000
  0.333333  0.333333  0.285714      4.000000
  0.444444  0.333333  0.285714      8.000000
 -0.444444  0.333333  0.285714      8.000000
 -0.333333  0.333333  0.285714      4.000000
  0.444444  0.444444  0.285714      4.000000
 -0.444444  0.444444  0.285714      4.000000
  0.000000  0.000000  0.428571      2.000000
  0.111111 -0.000000  0.428571      8.000000
  0.222222 -0.000000  0.428571      8.000000
  0.333333 -0.000000  0.428571      8.000000
  0.444444 -0.000000  0.428571      8.000000
  0.111111  0.111111  0.428571      4.000000
  0.222222  0.111111  0.428571      8.000000
  0.333333  0.111111  0.428571      8.000000
  0.444444  0.111111  0.428571      8.000000
 -0.444444  0.111111  0.428571      8.000000
 -0.333333  0.111111  0.428571      8.000000
 -0.222222  0.111111  0.428571      8.000000
 -0.111111  0.111111  0.428571      4.000000
  0.222222  0.222222  0.428571      4.000000
  0.333333  0.222222  0.428571      8.000000
  0.444444  0.222222  0.428571      8.000000
 -0.444444  0.222222  0.428571      8.000000
 -0.333333  0.222222  0.428571      8.000000
 -0.222222  0.222222  0.428571      4.000000
  0.333333  0.333333  0.428571      4.000000
  0.444444  0.333333  0.428571      8.000000
 -0.444444  0.333333  0.428571      8.000000
 -0.333333  0.333333  0.428571      4.000000
  0.444444  0.444444  0.428571      4.000000
 -0.444444  0.444444  0.428571      4.000000
 
 Following cartesian coordinates:
            Coordinates               Weight
  0.000000  0.000000  0.000000      1.000000
  0.025070 -0.014624  0.000000      4.000000
  0.050140 -0.029248  0.000000      4.000000
  0.075210 -0.043871  0.000000      4.000000
  0.100280 -0.058495  0.000000      4.000000
  0.050140 -0.000000  0.000000      2.000000
  0.075210 -0.014624  0.000000      4.000000
  0.100280 -0.029248  0.000000      4.000000
  0.125350 -0.043871  0.000000      4.000000
 -0.075210  0.073119  0.000000      4.000000
 -0.050140  0.058495  0.000000      4.000000
 -0.025070  0.043871  0.000000      4.000000
  0.000000  0.029248  0.000000      2.000000
  0.100280  0.000000  0.000000      2.000000
  0.125350 -0.014624  0.000000      4.000000
  0.150420 -0.029248  0.000000      4.000000
 -0.050140  0.087743  0.000000      4.000000
 -0.025070  0.073119  0.000000      4.000000
  0.000000  0.058495  0.000000      2.000000
  0.150420  0.000000  0.000000      2.000000
  0.175490 -0.014624  0.000000      4.000000
 -0.025070  0.102366  0.000000      4.000000
 -0.000000  0.087743  0.000000      2.000000
  0.200559  0.000000  0.000000      2.000000
  0.000000  0.116990  0.000000      2.000000
  0.000000  0.000000  0.031359      2.000000
  0.025070 -0.014624  0.031359      8.000000
  0.050140 -0.029248  0.031359      8.000000
  0.075210 -0.043871  0.031359      8.000000
  0.100280 -0.058495  0.031359      8.000000
  0.050140 -0.000000  0.031359      4.000000
  0.075210 -0.014624  0.031359      8.000000
  0.100280 -0.029248  0.031359      8.000000
  0.125350 -0.043871  0.031359      8.000000
 -0.075210  0.073119  0.031359      8.000000
 -0.050140  0.058495  0.031359      8.000000
 -0.025070  0.043871  0.031359      8.000000
  0.000000  0.029248  0.031359      4.000000
  0.100280  0.000000  0.031359      4.000000
  0.125350 -0.014624  0.031359      8.000000
  0.150420 -0.029248  0.031359      8.000000
 -0.050140  0.087743  0.031359      8.000000
 -0.025070  0.073119  0.031359      8.000000
  0.000000  0.058495  0.031359      4.000000
  0.150420  0.000000  0.031359      4.000000
  0.175490 -0.014624  0.031359      8.000000
 -0.025070  0.102366  0.031359      8.000000
 -0.000000  0.087743  0.031359      4.000000
  0.200559  0.000000  0.031359      4.000000
  0.000000  0.116990  0.031359      4.000000
  0.000000  0.000000  0.062718      2.000000
  0.025070 -0.014624  0.062718      8.000000
  0.050140 -0.029248  0.062718      8.000000
  0.075210 -0.043871  0.062718      8.000000
  0.100280 -0.058495  0.062718      8.000000
  0.050140 -0.000000  0.062718      4.000000
  0.075210 -0.014624  0.062718      8.000000
  0.100280 -0.029248  0.062718      8.000000
  0.125350 -0.043871  0.062718      8.000000
 -0.075210  0.073119  0.062718      8.000000
 -0.050140  0.058495  0.062718      8.000000
 -0.025070  0.043871  0.062718      8.000000
  0.000000  0.029248  0.062718      4.000000
  0.100280  0.000000  0.062718      4.000000
  0.125350 -0.014624  0.062718      8.000000
  0.150420 -0.029248  0.062718      8.000000
 -0.050140  0.087743  0.062718      8.000000
 -0.025070  0.073119  0.062718      8.000000
  0.000000  0.058495  0.062718      4.000000
  0.150420  0.000000  0.062718      4.000000
  0.175490 -0.014624  0.062718      8.000000
 -0.025070  0.102366  0.062718      8.000000
 -0.000000  0.087743  0.062718      4.000000
  0.200559  0.000000  0.062718      4.000000
  0.000000  0.116990  0.062718      4.000000
  0.000000  0.000000  0.094078      2.000000
  0.025070 -0.014624  0.094078      8.000000
  0.050140 -0.029248  0.094078      8.000000
  0.075210 -0.043871  0.094078      8.000000
  0.100280 -0.058495  0.094078      8.000000
  0.050140 -0.000000  0.094078      4.000000
  0.075210 -0.014624  0.094078      8.000000
  0.100280 -0.029248  0.094078      8.000000
  0.125350 -0.043871  0.094078      8.000000
 -0.075210  0.073119  0.094078      8.000000
 -0.050140  0.058495  0.094078      8.000000
 -0.025070  0.043871  0.094078      8.000000
  0.000000  0.029248  0.094078      4.000000
  0.100280  0.000000  0.094078      4.000000
  0.125350 -0.014624  0.094078      8.000000
  0.150420 -0.029248  0.094078      8.000000
 -0.050140  0.087743  0.094078      8.000000
 -0.025070  0.073119  0.094078      8.000000
  0.000000  0.058495  0.094078      4.000000
  0.150420  0.000000  0.094078      4.000000
  0.175490 -0.014624  0.094078      8.000000
 -0.025070  0.102366  0.094078      8.000000
 -0.000000  0.087743  0.094078      4.000000
  0.200559  0.000000  0.094078      4.000000
  0.000000  0.116990  0.094078      4.000000
 


--------------------------------------------------------------------------------------------------------




 Dimension of arrays:
   k-points           NKPTS =    100   k-points in BZ     NKDIM =    100   number of bands    NBANDS=     32
   number of dos      NEDOS =    301   number of ions     NIONS =      4
   non local maximal  LDIM  =      6   non local SUM 2l+1 LMDIM =     18
   total plane-waves  NPLWV =  13824
   max r-space proj   IRMAX =      1   max aug-charges    IRDMAX=   7029
   dimension x,y,z NGX =    24 NGY =   24 NGZ =   24
   dimension x,y,z NGXF=    48 NGYF=   48 NGZF=   48
   support grid    NGXF=    48 NGYF=   48 NGZF=   48
   ions per type =               4
   NGX,Y,Z   is equivalent  to a cutoff of   9.07,  9.07,  8.76 a.u.
   NGXF,Y,Z  is equivalent  to a cutoff of  18.14, 18.14, 17.52 a.u.

 SYSTEM =  unknown system                          
 POSCAR =  Ga4                                     

 Startparameter for this run:
   NWRITE =      2    write-flag & timer
   PREC   = normal    normal or accurate (medium, high low for compatibility)
   ISTART =      0    job   : 0-new  1-cont  2-samecut
   ICHARG =      2    charge: 1-file 2-atom 10-const
   ISPIN  =      1    spin polarized calculation?
   LNONCOLLINEAR =      F non collinear calculations
   LSORBIT =      F    spin-orbit coupling
   INIWAV =      1    electr: 0-lowe 1-rand  2-diag
   LASPH  =      T    aspherical Exc in radial PAW
 Electronic Relaxation 1
   ENCUT  =  400.0 eV  29.40 Ry    5.42 a.u.   7.17  7.17  7.43*2*pi/ulx,y,z
   ENINI  =  400.0     initial cutoff
   ENAUG  =  490.7 eV  augmentation charge cutoff
   NELM   =    100;   NELMIN=  2; NELMDL= -5     # of ELM steps 
   EDIFF  = 0.1E-06   stopping-criterion for ELM
   LREAL  =      F    real-space projection
   NLSPLINE    = F    spline interpolate recip. space projectors
   LCOMPAT=      F    compatible to vasp.4.4
   GGA_COMPAT  = T    GGA compatible to vasp.4.4-vasp.4.6
   LMAXPAW     = -100 max onsite density
   LMAXMIX     =    2 max onsite mixed and CHGCAR
   VOSKOWN=      0    Vosko Wilk Nusair interpolation
   ROPT   =    0.00000
 Ionic relaxation
   EDIFFG = -.5E-02   stopping-criterion for IOM
   NSW    =     20    number of steps for IOM
   NBLOCK =      1;   KBLOCK =     20    inner block; outer block 
   IBRION =      2    ionic relax: 0-MD 1-quasi-New 2-CG
   NFREE  =      1    steps in history (QN), initial steepest desc. (CG)
   ISIF   =      3    stress and relaxation
   IWAVPR =     11    prediction:  0-non 1-charg 2-wave 3-comb
   ISYM   =      2    0-nonsym 1-usesym 2-fastsym
   LCORR  =      T    Harris-Foulkes like correction to forces

   POTIM  = 0.5000    time-step for ionic-motion
   TEIN   =    0.0    initial temperature
   TEBEG  =    0.0;   TEEND  =   0.0 temperature during run
   SMASS  =  -3.00    Nose mass-parameter (am)
   estimated Nose-frequenzy (Omega)   =  0.10E-29 period in steps = 0.13E+47 mass=  -0.442E-27a.u.
   SCALEE = 1.0000    scale energy and forces
   NPACO  =    256;   APACO  = 10.0  distance and # of slots for P.C.
   PSTRESS=    0.0 pullay stress

  Mass of Ions in am
   POMASS =  69.72
  Ionic Valenz
   ZVAL   =  13.00
  Atomic Wigner-Seitz radii
   RWIGS  =  -1.00
  virtual crystal weights 
   VCA    =   1.00
   NELECT =      52.0000    total number of electrons
   NUPDOWN=      -1.0000    fix difference up-down

 DOS related values:
   EMIN   =  10.00;   EMAX   =-10.00  energy-range for DOS
   EFERMI =   0.00
   ISMEAR =     0;   SIGMA  =   0.10  broadening in eV -4-tet -1-fermi 0-gaus

 Electronic relaxation 2 (details)
   IALGO  =     38    algorithm
   LDIAG  =      T    sub-space diagonalisation (order eigenvalues)
   LSUBROT=      F    optimize rotation matrix (better conditioning)
   TURBO    =      0    0=normal 1=particle mesh
   IRESTART =      0    0=no restart 2=restart with 2 vectors
   NREBOOT  =      0    no. of reboots
   NMIN     =      0    reboot dimension
   EREF     =   0.00    reference energy to select bands
   IMIX   =      4    mixing-type and parameters
     AMIX     =   0.40;   BMIX     =  1.00
     AMIX_MAG =   1.60;   BMIX_MAG =  1.00
     AMIN     =   0.10
     WC   =   100.;   INIMIX=   1;  MIXPRE=   1;  MAXMIX= -45

 Intra band minimization:
   WEIMIN = 0.0010     energy-eigenvalue tresh-hold
   EBREAK =  0.78E-09  absolut break condition
   DEPER  =   0.30     relativ break condition  

   TIME   =   0.40     timestep for ELM

  volume/ion in A,a.u.               =      19.18       129.40
  Fermi-wavevector in a.u.,A,eV,Ry     =   1.438157  2.717722 28.140864  2.068295
  Thomas-Fermi vector in A             =   2.557155
 
 Write flags
   LWAVE        =      F    write WAVECAR
   LDOWNSAMPLE  =      F    k-point downsampling of WAVECAR
   LCHARG       =      F    write CHGCAR
   LVTOT        =      F    write LOCPOT, total local potential
   LVHAR        =      F    write LOCPOT, Hartree potential only
   LELF         =      F    write electronic localiz. function (ELF)
   LORBIT       =     10    0 simple, 1 ext, 2 COOP (PROOUT), +10 PAW based schemes


 Dipole corrections
   LMONO  =      F    monopole corrections only (constant potential shift)
   LDIPOL =      F    correct potential (dipole corrections)
   IDIPOL =      0    1-x, 2-y, 3-z, 4-all directions 
   EPSILON=  1.0000000 bulk dielectric constant

 Exchange correlation treatment:
   GGA     =    --    GGA type
   LEXCH   =     8    internal setting for exchange type
   LIBXC   =     F    Libxc                    
   VOSKOWN =     0    Vosko Wilk Nusair interpolation
   LHFCALC =     F    Hartree Fock is set to
   LHFONE  =     F    Hartree Fock one center treatment
   AEXX    =    0.0000 exact exchange contribution

 Linear response parameters
   LEPSILON=     F    determine dielectric tensor
   LRPA    =     F    only Hartree local field effects (RPA)
   LNABLA  =     F    use nabla operator in PAW spheres
   LVEL    =     F    velocity operator in full k-point grid
   CSHIFT  =0.1000    complex shift for real part using Kramers Kronig
   OMEGAMAX=  -1.0    maximum frequency
   DEG_THRESHOLD= 0.2000000E-02 threshold for treating states as degnerate
   RTIME   =   -0.100 relaxation time in fs
  (WPLASMAI=    0.000 imaginary part of plasma frequency in eV, 0.658/RTIME)
   DFIELD  = 0.0000000 0.0000000 0.0000000 field for delta impulse in time
 
  Optional k-point grid parameters
   LKPOINTS_OPT  =     F    use optional k-point grid
   KPOINTS_OPT_MODE=     1    mode for optional k-point grid
 
 Orbital magnetization related:
   ORBITALMAG=     F  switch on orbital magnetization
   LCHIMAG   =     F  perturbation theory with respect to B field
   DQ        =  0.001000  dq finite difference perturbation B field
   LLRAUG    =     F  two centre corrections for induced B field



--------------------------------------------------------------------------------------------------------


 conjugate gradient relaxation of ions
 charge density and potential will be updated during run
 non-spin polarized calculation
 Variant of blocked Davidson
 Davidson routine will perform the subspace rotation
 perform sub-space diagonalisation
    after iterative eigenvector-optimisation
 modified Broyden-mixing scheme, WC =      100.0
 initial mixing is a Kerker type mixing with AMIX =  0.4000 and BMIX =      1.0000
 Hartree-type preconditioning will be used
 using additional bands            6
 reciprocal scheme for non local part
 use partial core corrections
 calculate Harris-corrections to forces 
   (improved forces if not selfconsistent)
 use gradient corrections 
 use of overlap-Matrix (Vanderbilt PP)
 Gauss-broadening in eV      SIGMA  =   0.10


--------------------------------------------------------------------------------------------------------


  energy-cutoff  :      400.00
  volume of cell :       76.70
      direct lattice vectors                 reciprocal lattice vectors
     2.216023330 -3.798991840  0.000000000     0.225629393 -0.131613865  0.000000000
     2.216023330  3.798991840  0.000000000     0.225629393  0.131613865  0.000000000
     0.000000000  0.000000000  4.555503530     0.000000000  0.000000000  0.219514702

  length of vectors
     4.398078944  4.398078944  4.555503530     0.261210323  0.261210323  0.219514702


 
 k-points in units of 2pi/SCALE and weight: Num irrep kpoints: 100                  
   0.00000000  0.00000000  0.00000000       0.002
   0.02506993 -0.01462376  0.00000000       0.007
   0.05013987 -0.02924753  0.00000000       0.007
   0.07520980 -0.04387129  0.00000000       0.007
   0.10027973 -0.05849505  0.00000000       0.007
   0.05013987  0.00000000  0.00000000       0.004
   0.07520980 -0.01462376  0.00000000       0.007
   0.10027973 -0.02924753  0.00000000       0.007
   0.12534966 -0.04387129  0.00000000       0.007
  -0.07520980  0.07311881  0.00000000       0.007
  -0.05013987  0.05849505  0.00000000       0.007
  -0.02506993  0.04387129  0.00000000       0.007
  -0.00000000  0.02924753  0.00000000       0.004
   0.10027973 -0.00000000  0.00000000       0.004
   0.12534966 -0.01462376  0.00000000       0.007
   0.15041960 -0.02924753  0.00000000       0.007
  -0.05013987  0.08774258  0.00000000       0.007
  -0.02506993  0.07311881  0.00000000       0.007
  -0.00000000  0.05849505  0.00000000       0.004
   0.15041960 -0.00000000  0.00000000       0.004
   0.17548953 -0.01462376  0.00000000       0.007
  -0.02506993  0.10236634  0.00000000       0.007
   0.00000000  0.08774258  0.00000000       0.004
   0.20055946 -0.00000000  0.00000000       0.004
  -0.00000000  0.11699010  0.00000000       0.004
   0.00000000  0.00000000  0.03135924       0.004
   0.02506993 -0.01462376  0.03135924       0.014
   0.05013987 -0.02924753  0.03135924       0.014
   0.07520980 -0.04387129  0.03135924       0.014
   0.10027973 -0.05849505  0.03135924       0.014
   0.05013987  0.00000000  0.03135924       0.007
   0.07520980 -0.01462376  0.03135924       0.014
   0.10027973 -0.02924753  0.03135924       0.014
   0.12534966 -0.04387129  0.03135924       0.014
  -0.07520980  0.07311881  0.03135924       0.014
  -0.05013987  0.05849505  0.03135924       0.014
  -0.02506993  0.04387129  0.03135924       0.014
  -0.00000000  0.02924753  0.03135924       0.007
   0.10027973 -0.00000000  0.03135924       0.007
   0.12534966 -0.01462376  0.03135924       0.014
   0.15041960 -0.02924753  0.03135924       0.014
  -0.05013987  0.08774258  0.03135924       0.014
  -0.02506993  0.07311881  0.03135924       0.014
  -0.00000000  0.05849505  0.03135924       0.007
   0.15041960 -0.00000000  0.03135924       0.007
   0.17548953 -0.01462376  0.03135924       0.014
  -0.02506993  0.10236634  0.03135924       0.014
   0.00000000  0.08774258  0.03135924       0.007
   0.20055946 -0.00000000  0.03135924       0.007
  -0.00000000  0.11699010  0.03135924       0.007
   0.00000000  0.00000000  0.06271849       0.004
   0.02506993 -0.01462376  0.06271849       0.014
   0.05013987 -0.02924753  0.06271849       0.014
   0.07520980 -0.04387129  0.06271849       0.014
   0.10027973 -0.05849505  0.06271849       0.014
   0.05013987  0.00000000  0.06271849       0.007
   0.07520980 -0.01462376  0.06271849       0.014
   0.10027973 -0.02924753  0.06271849       0.014
   0.12534966 -0.04387129  0.06271849       0.014
  -0.07520980  0.07311881  0.06271849       0.014
  -0.05013987  0.05849505  0.06271849       0.014
  -0.02506993  0.04387129  0.06271849       0.014
  -0.00000000  0.02924753  0.06271849       0.007
   0.10027973 -0.00000000  0.06271849       0.007
   0.12534966 -0.01462376  0.06271849       0.014
   0.15041960 -0.02924753  0.06271849       0.014
  -0.05013987  0.08774258  0.06271849       0.014
  -0.02506993  0.07311881  0.06271849       0.014
  -0.00000000  0.05849505  0.06271849       0.007
   0.15041960 -0.00000000  0.06271849       0.007
   0.17548953 -0.01462376  0.06271849       0.014
  -0.02506993  0.10236634  0.06271849       0.014
   0.00000000  0.08774258  0.06271849       0.007
   0.20055946 -0.00000000  0.06271849       0.007
  -0.00000000  0.11699010  0.06271849       0.007
   0.00000000  0.00000000  0.09407773       0.004
   0.02506993 -0.01462376  0.09407773       0.014
   0.05013987 -0.02924753  0.09407773       0.014
   0.07520980 -0.04387129  0.09407773       0.014
   0.10027973 -0.05849505  0.09407773       0.014
   0.05013987  0.00000000  0.09407773       0.007
   0.07520980 -0.01462376  0.09407773       0.014
   0.10027973 -0.02924753  0.09407773       0.014
   0.12534966 -0.04387129  0.09407773       0.014
  -0.07520980  0.07311881  0.09407773       0.014
  -0.05013987  0.05849505  0.09407773       0.014
  -0.02506993  0.04387129  0.09407773       0.014
  -0.00000000  0.02924753  0.09407773       0.007
   0.10027973 -0.00000000  0.09407773       0.007
   0.12534966 -0.01462376  0.09407773       0.014
   0.15041960 -0.02924753  0.09407773       0.014
  -0.05013987  0.08774258  0.09407773       0.014
  -0.02506993  0.07311881  0.09407773       0.014
  -0.00000000  0.05849505  0.09407773       0.007
   0.15041960 -0.00000000  0.09407773       0.007
   0.17548953 -0.01462376  0.09407773       0.014
  -0.02506993  0.10236634  0.09407773       0.014
   0.00000000  0.08774258  0.09407773       0.007
   0.20055946 -0.00000000  0.09407773       0.007
  -0.00000000  0.11699010  0.09407773       0.007
 
 k-points in reciprocal lattice and weights: Num irrep kpoints: 100                  
   0.00000000  0.00000000  0.00000000       0.002
   0.11111111 -0.00000000  0.00000000       0.007
   0.22222222 -0.00000000  0.00000000       0.007
   0.33333333 -0.00000000  0.00000000       0.007
   0.44444444 -0.00000000  0.00000000       0.007
   0.11111111  0.11111111  0.00000000       0.004
   0.22222222  0.11111111  0.00000000       0.007
   0.33333333  0.11111111  0.00000000       0.007
   0.44444444  0.11111111  0.00000000       0.007
  -0.44444444  0.11111111  0.00000000       0.007
  -0.33333333  0.11111111  0.00000000       0.007
  -0.22222222  0.11111111  0.00000000       0.007
  -0.11111111  0.11111111  0.00000000       0.004
   0.22222222  0.22222222  0.00000000       0.004
   0.33333333  0.22222222  0.00000000       0.007
   0.44444444  0.22222222  0.00000000       0.007
  -0.44444444  0.22222222  0.00000000       0.007
  -0.33333333  0.22222222  0.00000000       0.007
  -0.22222222  0.22222222  0.00000000       0.004
   0.33333333  0.33333333  0.00000000       0.004
   0.44444444  0.33333333  0.00000000       0.007
  -0.44444444  0.33333333  0.00000000       0.007
  -0.33333333  0.33333333  0.00000000       0.004
   0.44444444  0.44444444  0.00000000       0.004
  -0.44444444  0.44444444  0.00000000       0.004
   0.00000000  0.00000000  0.14285714       0.004
   0.11111111 -0.00000000  0.14285714       0.014
   0.22222222 -0.00000000  0.14285714       0.014
   0.33333333 -0.00000000  0.14285714       0.014
   0.44444444 -0.00000000  0.14285714       0.014
   0.11111111  0.11111111  0.14285714       0.007
   0.22222222  0.11111111  0.14285714       0.014
   0.33333333  0.11111111  0.14285714       0.014
   0.44444444  0.11111111  0.14285714       0.014
  -0.44444444  0.11111111  0.14285714       0.014
  -0.33333333  0.11111111  0.14285714       0.014
  -0.22222222  0.11111111  0.14285714       0.014
  -0.11111111  0.11111111  0.14285714       0.007
   0.22222222  0.22222222  0.14285714       0.007
   0.33333333  0.22222222  0.14285714       0.014
   0.44444444  0.22222222  0.14285714       0.014
  -0.44444444  0.22222222  0.14285714       0.014
  -0.33333333  0.22222222  0.14285714       0.014
  -0.22222222  0.22222222  0.14285714       0.007
   0.33333333  0.33333333  0.14285714       0.007
   0.44444444  0.33333333  0.14285714       0.014
  -0.44444444  0.33333333  0.14285714       0.014
  -0.33333333  0.33333333  0.14285714       0.007
   0.44444444  0.44444444  0.14285714       0.007
  -0.44444444  0.44444444  0.14285714       0.007
   0.00000000  0.00000000  0.28571429       0.004
   0.11111111 -0.00000000  0.28571429       0.014
   0.22222222 -0.00000000  0.28571429       0.014
   0.33333333 -0.00000000  0.28571429       0.014
   0.44444444 -0.00000000  0.28571429       0.014
   0.11111111  0.11111111  0.28571429       0.007
   0.22222222  0.11111111  0.28571429       0.014
   0.33333333  0.11111111  0.28571429       0.014
   0.44444444  0.11111111  0.28571429       0.014
  -0.44444444  0.11111111  0.28571429       0.014
  -0.33333333  0.11111111  0.28571429       0.014
  -0.22222222  0.11111111  0.28571429       0.014
  -0.11111111  0.11111111  0.28571429       0.007
   0.22222222  0.22222222  0.28571429       0.007
   0.33333333  0.22222222  0.28571429       0.014
   0.44444444  0.22222222  0.28571429       0.014
  -0.44444444  0.22222222  0.28571429       0.014
  -0.33333333  0.22222222  0.28571429       0.014
  -0.22222222  0.22222222  0.28571429       0.007
   0.33333333  0.33333333  0.28571429       0.007
   0.44444444  0.33333333  0.28571429       0.014
  -0.44444444  0.33333333  0.28571429       0.014
  -0.33333333  0.33333333  0.28571429       0.007
   0.44444444  0.44444444  0.28571429       0.007
  -0.44444444  0.44444444  0.28571429       0.007
   0.00000000  0.00000000  0.42857143       0.004
   0.11111111 -0.00000000  0.42857143       0.014
   0.22222222 -0.00000000  0.42857143       0.014
   0.33333333 -0.00000000  0.42857143       0.014
   0.44444444 -0.00000000  0.42857143       0.014
   0.11111111  0.11111111  0.42857143       0.007
   0.22222222  0.11111111  0.42857143       0.014
   0.33333333  0.11111111  0.42857143       0.014
   0.44444444  0.11111111  0.42857143       0.014
  -0.44444444  0.11111111  0.42857143       0.014
  -0.33333333  0.11111111  0.42857143       0.014
  -0.22222222  0.11111111  0.42857143       0.014
  -0.11111111  0.11111111  0.42857143       0.007
   0.22222222  0.22222222  0.42857143       0.007
   0.33333333  0.22222222  0.42857143       0.014
   0.44444444  0.22222222  0.42857143       0.014
  -0.44444444  0.22222222  0.42857143       0.014
  -0.33333333  0.22222222  0.42857143       0.014
  -0.22222222  0.22222222  0.42857143       0.007
   0.33333333  0.33333333  0.42857143       0.007
   0.44444444  0.33333333  0.42857143       0.014
  -0.44444444  0.33333333  0.42857143       0.014
  -0.33333333  0.33333333  0.42857143       0.007
   0.44444444  0.44444444  0.42857143       0.007
  -0.44444444  0.44444444  0.42857143       0.007
 
 position of ions in fractional coordinates (direct lattice) 
   0.65569572  0.34430428  0.41540139
   0.84430428  0.15569572  0.91540139
   0.34430428  0.65569572  0.58459861
   0.15569572  0.84430428  0.08459861
 
 position of ions in cartesian coordinates  (Angst):
   2.21602333 -1.18297354  1.89236250
   2.21602333 -2.61601830  4.17011426
   2.21602333  1.18297354  2.66314103
   2.21602333  2.61601830  0.38538927
 


--------------------------------------------------------------------------------------------------------


 k-point   1 :   0.0000 0.0000 0.0000  plane waves:    1425
 k-point   2 :   0.1111-0.0000 0.0000  plane waves:    1416
 k-point   3 :   0.2222-0.0000 0.0000  plane waves:    1397
 k-point   4 :   0.3333-0.0000 0.0000  plane waves:    1392
 k-point   5 :   0.4444-0.0000 0.0000  plane waves:    1395
 k-point   6 :   0.1111 0.1111 0.0000  plane waves:    1391
 k-point   7 :   0.2222 0.1111 0.0000  plane waves:    1383
 k-point   8 :   0.3333 0.1111 0.0000  plane waves:    1395
 k-point   9 :   0.4444 0.1111 0.0000  plane waves:    1388
 k-point  10 :  -0.4444 0.1111 0.0000  plane waves:    1393
 k-point  11 :  -0.3333 0.1111 0.0000  plane waves:    1388
 k-point  12 :  -0.2222 0.1111 0.0000  plane waves:    1411
 k-point  13 :  -0.1111 0.1111 0.0000  plane waves:    1411
 k-point  14 :   0.2222 0.2222 0.0000  plane waves:    1399
 k-point  15 :   0.3333 0.2222 0.0000  plane waves:    1401
 k-point  16 :   0.4444 0.2222 0.0000  plane waves:    1400
 k-point  17 :  -0.4444 0.2222 0.0000  plane waves:    1395
 k-point  18 :  -0.3333 0.2222 0.0000  plane waves:    1396
 k-point  19 :  -0.2222 0.2222 0.0000  plane waves:    1402
 k-point  20 :   0.3333 0.3333 0.0000  plane waves:    1401
 k-point  21 :   0.4444 0.3333 0.0000  plane waves:    1404
 k-point  22 :  -0.4444 0.3333 0.0000  plane waves:    1388
 k-point  23 :  -0.3333 0.3333 0.0000  plane waves:    1392
 k-point  24 :   0.4444 0.4444 0.0000  plane waves:    1392
 k-point  25 :  -0.4444 0.4444 0.0000  plane waves:    1390
 k-point  26 :   0.0000 0.0000 0.1429  plane waves:    1391
 k-point  27 :   0.1111-0.0000 0.1429  plane waves:    1401
 k-point  28 :   0.2222-0.0000 0.1429  plane waves:    1389
 k-point  29 :   0.3333-0.0000 0.1429  plane waves:    1393
 k-point  30 :   0.4444-0.0000 0.1429  plane waves:    1393
 k-point  31 :   0.1111 0.1111 0.1429  plane waves:    1393
 k-point  32 :   0.2222 0.1111 0.1429  plane waves:    1388
 k-point  33 :   0.3333 0.1111 0.1429  plane waves:    1396
 k-point  34 :   0.4444 0.1111 0.1429  plane waves:    1393
 k-point  35 :  -0.4444 0.1111 0.1429  plane waves:    1396
 k-point  36 :  -0.3333 0.1111 0.1429  plane waves:    1391
 k-point  37 :  -0.2222 0.1111 0.1429  plane waves:    1398
 k-point  38 :  -0.1111 0.1111 0.1429  plane waves:    1389
 k-point  39 :   0.2222 0.2222 0.1429  plane waves:    1393
 k-point  40 :   0.3333 0.2222 0.1429  plane waves:    1403
 k-point  41 :   0.4444 0.2222 0.1429  plane waves:    1399
 k-point  42 :  -0.4444 0.2222 0.1429  plane waves:    1396
 k-point  43 :  -0.3333 0.2222 0.1429  plane waves:    1396
 k-point  44 :  -0.2222 0.2222 0.1429  plane waves:    1390
 k-point  45 :   0.3333 0.3333 0.1429  plane waves:    1404
 k-point  46 :   0.4444 0.3333 0.1429  plane waves:    1401
 k-point  47 :  -0.4444 0.3333 0.1429  plane waves:    1396
 k-point  48 :  -0.3333 0.3333 0.1429  plane waves:    1396
 k-point  49 :   0.4444 0.4444 0.1429  plane waves:    1396
 k-point  50 :  -0.4444 0.4444 0.1429  plane waves:    1400
 k-point  51 :   0.0000 0.0000 0.2857  plane waves:    1399
 k-point  52 :   0.1111-0.0000 0.2857  plane waves:    1387
 k-point  53 :   0.2222-0.0000 0.2857  plane waves:    1391
 k-point  54 :   0.3333-0.0000 0.2857  plane waves:    1396
 k-point  55 :   0.4444-0.0000 0.2857  plane waves:    1395
 k-point  56 :   0.1111 0.1111 0.2857  plane waves:    1389
 k-point  57 :   0.2222 0.1111 0.2857  plane waves:    1389
 k-point  58 :   0.3333 0.1111 0.2857  plane waves:    1391
 k-point  59 :   0.4444 0.1111 0.2857  plane waves:    1395
 k-point  60 :  -0.4444 0.1111 0.2857  plane waves:    1393
 k-point  61 :  -0.3333 0.1111 0.2857  plane waves:    1386
 k-point  62 :  -0.2222 0.1111 0.2857  plane waves:    1386
 k-point  63 :  -0.1111 0.1111 0.2857  plane waves:    1392
 k-point  64 :   0.2222 0.2222 0.2857  plane waves:    1395
 k-point  65 :   0.3333 0.2222 0.2857  plane waves:    1399
 k-point  66 :   0.4444 0.2222 0.2857  plane waves:    1396
 k-point  67 :  -0.4444 0.2222 0.2857  plane waves:    1390
 k-point  68 :  -0.3333 0.2222 0.2857  plane waves:    1393
 k-point  69 :  -0.2222 0.2222 0.2857  plane waves:    1388
 k-point  70 :   0.3333 0.3333 0.2857  plane waves:    1402
 k-point  71 :   0.4444 0.3333 0.2857  plane waves:    1400
 k-point  72 :  -0.4444 0.3333 0.2857  plane waves:    1395
 k-point  73 :  -0.3333 0.3333 0.2857  plane waves:    1394
 k-point  74 :   0.4444 0.4444 0.2857  plane waves:    1393
 k-point  75 :  -0.4444 0.4444 0.2857  plane waves:    1400
 k-point  76 :   0.0000 0.0000 0.4286  plane waves:    1377
 k-point  77 :   0.1111-0.0000 0.4286  plane waves:    1384
 k-point  78 :   0.2222-0.0000 0.4286  plane waves:    1386
 k-point  79 :   0.3333-0.0000 0.4286  plane waves:    1396
 k-point  80 :   0.4444-0.0000 0.4286  plane waves:    1399
 k-point  81 :   0.1111 0.1111 0.4286  plane waves:    1387
 k-point  82 :   0.2222 0.1111 0.4286  plane waves:    1386
 k-point  83 :   0.3333 0.1111 0.4286  plane waves:    1387
 k-point  84 :   0.4444 0.1111 0.4286  plane waves:    1398
 k-point  85 :  -0.4444 0.1111 0.4286  plane waves:    1390
 k-point  86 :  -0.3333 0.1111 0.4286  plane waves:    1382
 k-point  87 :  -0.2222 0.1111 0.4286  plane waves:    1390
 k-point  88 :  -0.1111 0.1111 0.4286  plane waves:    1386
 k-point  89 :   0.2222 0.2222 0.4286  plane waves:    1381
 k-point  90 :   0.3333 0.2222 0.4286  plane waves:    1390
 k-point  91 :   0.4444 0.2222 0.4286  plane waves:    1394
 k-point  92 :  -0.4444 0.2222 0.4286  plane waves:    1382
 k-point  93 :  -0.3333 0.2222 0.4286  plane waves:    1384
 k-point  94 :  -0.2222 0.2222 0.4286  plane waves:    1391
 k-point  95 :   0.3333 0.3333 0.4286  plane waves:    1398
 k-point  96 :   0.4444 0.3333 0.4286  plane waves:    1393
 k-point  97 :  -0.4444 0.3333 0.4286  plane waves:    1388
 k-point  98 :  -0.3333 0.3333 0.4286  plane waves:    1390
 k-point  99 :   0.4444 0.4444 0.4286  plane waves:    1401
 k-point 100 :  -0.4444 0.4444 0.4286  plane waves:    1395

 maximum and minimum number of plane-waves per node :      1425     1377

 maximum number of plane-waves:      1425
 maximum index in each direction: 
   IXMAX=    7   IYMAX=    7   IZMAX=    7
   IXMIN=   -7   IYMIN=   -7   IZMIN=   -7


 serial   3D FFT for wavefunctions
 parallel 3D FFT for charge:
    minimum data exchange during FFTs selected (reduces bandwidth)


 total amount of memory used by VASP MPI-rank0    62180. kBytes
=======================================================================

   base      :      30000. kBytes
   nonl-proj :      20712. kBytes
   fftplans  :        537. kBytes
   grid      :       1244. kBytes
   one-center:         62. kBytes
   wavefun   :       9625. kBytes
 
     INWAV:  cpu time      0.0000: real time      0.0000
 Broyden mixing: mesh for mixing (old mesh)
   NGX = 15   NGY = 15   NGZ = 15
  (NGX  = 48   NGY  = 48   NGZ  = 48)
  gives a total of   3375 points

 initial charge density was supplied:
 charge density of overlapping atoms calculated
 number of electron      52.0000000 magnetization 
 keeping initial charge density in first step


--------------------------------------------------------------------------------------------------------


 Maximum index for augmentation-charges          853 (set IRDMAX)


--------------------------------------------------------------------------------------------------------


 First call to EWALD:  gamma=   0.417
 Maximum number of real-space cells 3x 3x 3
 Maximum number of reciprocal cells 3x 3x 3

    FEWALD:  cpu time      0.0030: real time      0.0030


--------------------------------------- Iteration      1(   1)  ---------------------------------------


    POTLOK:  cpu time      0.0054: real time      0.0076
    SETDIJ:  cpu time      0.1272: real time      0.1277
     EDDAV:  cpu time      0.1883: real time      0.2019
       DOS:  cpu time      0.0018: real time      0.0018
    --------------------------------------------
      LOOP:  cpu time      0.3226: real time      0.3389

 eigenvalue-minimisations  :  6536
 total energy-change (2. order) : 0.3261971E+03  (-0.2254184E+04)
 number of electron      52.0000000 magnetization 
 augmentation part       52.0000000 magnetization 

 Free energy of the ion-electron system (eV)
  ---------------------------------------------------
  alpha Z        PSCENC =       281.68605094
  Ewald energy   TEWEN  =     -5064.01715997
  -Hartree energ DENC   =     -2310.52749804
  -exchange      EXHF   =         0.00000000
  -V(xc)+E(xc)   XCENC  =       176.46261566
  PAW double counting   =      6412.62289996    -7746.83504275
  entropy T*S    EENTRO =        -0.00191662
  eigenvalues    EBANDS =       -18.47131384
  atomic energy  EATOM  =      8595.27849819
  Solvation  Ediel_sol  =         0.00000000
  ---------------------------------------------------
  free energy    TOTEN  =       326.19713353 eV

  energy without entropy =      326.19905015  energy(sigma->0) =      326.19809184


--------------------------------------------------------------------------------------------------------




--------------------------------------- Iteration      1(   2)  ---------------------------------------


     EDDAV:  cpu time      0.1702: real time      0.1718
       DOS:  cpu time      0.0006: real time      0.0006
    --------------------------------------------
      LOOP:  cpu time      0.1708: real time      0.1725

 eigenvalue-minimisations  :  6624
 total energy-change (2. order) :-0.3009902E+03  (-0.2953124E+03)
 number of electron      52.0000000 magnetization 
 augmentation part       52.0000000 magnetization 

 Free energy of the ion-electron system (eV)
  ---------------------------------------------------
  alpha Z        PSCENC =       281.68605094
  Ewald energy   TEWEN  =     -5064.01715997
  -Hartree energ DENC   =     -2310.52749804
  -exchange      EXHF   =         0.00000000
  -V(xc)+E(xc)   XCENC  =       176.46261566
  PAW double counting   =      6412.62289996    -7746.83504275
  entropy T*S    EENTRO =        -0.00569205
  eigenvalues    EBANDS =      -319.45777950
  atomic energy  EATOM  =      8595.27849819
  Solvation  Ediel_sol  =         0.00000000
  ---------------------------------------------------
  free energy    TOTEN  =        25.20689244 eV

  energy without entropy =       25.21258449  energy(sigma->0) =       25.20973847


--------------------------------------------------------------------------------------------------------




--------------------------------------- Iteration      1(   3)  ---------------------------------------


     EDDAV:  cpu time      0.1872: real time      0.1887
       DOS:  cpu time      0.0007: real time      0.0007
    --------------------------------------------
      LOOP:  cpu time      0.1879: real time      0.1894

 eigenvalue-minimisations  :  7456
 total energy-change (2. order) :-0.3592518E+02  (-0.3561440E+02)
 number of electron      52.0000000 magnetization 
 augmentation part       52.0000000 magnetization 

 Free energy of the ion-electron system (eV)
  ---------------------------------------------------
  alpha Z        PSCENC =       281.68605094
  Ewald energy   TEWEN  =     -5064.01715997
  -Hartree energ DENC   =     -2310.52749804
  -exchange      EXHF   =         0.00000000
  -V(xc)+E(xc)   XCENC  =       176.46261566
  PAW double counting   =      6412.62289996    -7746.83504275
  entropy T*S    EENTRO =        -0.00328300
  eigenvalues    EBANDS =      -355.38536410
  atomic energy  EATOM  =      8595.27849819
  Solvation  Ediel_sol  =         0.00000000
  ---------------------------------------------------
  free energy    TOTEN  =       -10.71828311 eV

  energy without entropy =      -10.71500011  energy(sigma->0) =      -10.71664161


--------------------------------------------------------------------------------------------------------




--------------------------------------- Iteration      1(   4)  ---------------------------------------


     EDDAV:  cpu time      0.1795: real time      0.1809
       DOS:  cpu time      0.0007: real time      0.0007
    --------------------------------------------
      LOOP:  cpu time      0.1801: real time      0.1815

 eigenvalue-minimisations  :  6976
 total energy-change (2. order) :-0.9293651E+00  (-0.9275185E+00)
 number of electron      52.0000000 magnetization 
 augmentation part       52.0000000 magnetization 

 Free energy of the ion-electron system (eV)
  ---------------------------------------------------
  alpha Z        PSCENC =       281.68605094
  Ewald energy   TEWEN  =     -5064.01715997
  -Hartree energ DENC   =     -2310.52749804
  -exchange      EXHF   =         0.00000000
  -V(xc)+E(xc)   XCENC  =       176.46261566
  PAW double counting   =      6412.62289996    -7746.83504275
  entropy T*S    EENTRO =        -0.00385531
  eigenvalues    EBANDS =      -356.31415689
  atomic energy  EATOM  =      8595.27849819
  Solvation  Ediel_sol  =         0.00000000
  ---------------------------------------------------
  free energy    TOTEN  =       -11.64764820 eV

  energy without entropy =      -11.64379290  energy(sigma->0) =      -11.64572055


--------------------------------------------------------------------------------------------------------




--------------------------------------- Iteration      1(   5)  ---------------------------------------


     EDDAV:  cpu time      0.1945: real time      0.1960
       DOS:  cpu time      0.0006: real time      0.0006
    CHARGE:  cpu time      0.0098: real time      0.0098
    MIXING:  cpu time      0.0006: real time      0.0006
    --------------------------------------------
      LOOP:  cpu time      0.2055: real time      0.2071

 eigenvalue-minimisations  :  7944
 total energy-change (2. order) :-0.2085108E-01  (-0.2084887E-01)
 number of electron      51.9999981 magnetization 
 augmentation part       33.4948282 magnetization 

 Broyden mixing:
  rms(total) = 0.25564E+00    rms(broyden)= 0.25563E+00
  rms(prec ) = 0.51089E+00
  weight for this iteration     100.00

 Free energy of the ion-electron system (eV)
  ---------------------------------------------------
  alpha Z        PSCENC =       281.68605094
  Ewald energy   TEWEN  =     -5064.01715997
  -Hartree energ DENC   =     -2310.52749804
  -exchange      EXHF   =         0.00000000
  -V(xc)+E(xc)   XCENC  =       176.46261566
  PAW double counting   =      6412.62289996    -7746.83504275
  entropy T*S    EENTRO =        -0.00385389
  eigenvalues    EBANDS =      -356.33500938
  atomic energy  EATOM  =      8595.27849819
  Solvation  Ediel_sol  =         0.00000000
  ---------------------------------------------------
  free energy    TOTEN  =       -11.66849928 eV

  energy without entropy =      -11.66464539  energy(sigma->0) =      -11.66657234


--------------------------------------------------------------------------------------------------------




--------------------------------------- Iteration      1(   6)  ---------------------------------------


    POTLOK:  cpu time      0.0048: real time      0.0050
    SETDIJ:  cpu time      0.1269: real time      0.1273
     EDDAV:  cpu time      0.1889: real time      0.1902
       DOS:  cpu time      0.0006: real time      0.0006
    CHARGE:  cpu time      0.0088: real time      0.0088
    MIXING:  cpu time      0.0004: real time      0.0004
    --------------------------------------------
      LOOP:  cpu time      0.3305: real time      0.3324

 eigenvalue-minimisations  :  7664
 total energy-change (2. order) : 0.8090912E-01  (-0.2134822E-01)
 number of electron      51.9999981 magnetization 
 augmentation part       33.5779082 magnetization 

 Broyden mixing:
  rms(total) = 0.14003E+00    rms(broyden)= 0.14003E+00
  rms(prec ) = 0.27526E+00
  weight for this iteration     100.00

 eigenvalues of (default mixing * dielectric matrix)
  average eigenvalue GAMMA=   1.9789
  1.9789

 Free energy of the ion-electron system (eV)
  ---------------------------------------------------
  alpha Z        PSCENC =       281.68605094
  Ewald energy   TEWEN  =     -5064.01715997
  -Hartree energ DENC   =     -2295.26568521
  -exchange      EXHF   =         0.00000000
  -V(xc)+E(xc)   XCENC  =       175.78776143
  PAW double counting   =      6618.29581576    -7948.22850705
  entropy T*S    EENTRO =        -0.00383217
  eigenvalues    EBANDS =      -375.12053209
  atomic energy  EATOM  =      8595.27849819
  Solvation  Ediel_sol  =         0.00000000
  ---------------------------------------------------
  free energy    TOTEN  =       -11.58759016 eV

  energy without entropy =      -11.58375799  energy(sigma->0) =      -11.58567407


--------------------------------------------------------------------------------------------------------




--------------------------------------- Iteration      1(   7)  ---------------------------------------


    POTLOK:  cpu time      0.0046: real time      0.0048
    SETDIJ:  cpu time      0.1274: real time      0.1277
     EDDAV:  cpu time      0.2247: real time      0.2263
       DOS:  cpu time      0.0006: real time      0.0006
    CHARGE:  cpu time      0.0090: real time      0.0090
    MIXING:  cpu time      0.0004: real time      0.0017
    --------------------------------------------
      LOOP:  cpu time      0.3668: real time      0.3703

 eigenvalue-minimisations  :  9192
 total energy-change (2. order) : 0.1537880E-01  (-0.5991599E-02)
 number of electron      51.9999981 magnetization 
 augmentation part       33.6075148 magnetization 

 Broyden mixing:
  rms(total) = 0.31659E-01    rms(broyden)= 0.31658E-01
  rms(prec ) = 0.63242E-01
  weight for this iteration     100.00

 eigenvalues of (default mixing * dielectric matrix)
  average eigenvalue GAMMA=   1.8818
  1.2331  2.5306

 Free energy of the ion-electron system (eV)
  ---------------------------------------------------
  alpha Z        PSCENC =       281.68605094
  Ewald energy   TEWEN  =     -5064.01715997
  -Hartree energ DENC   =     -2283.89387858
  -exchange      EXHF   =         0.00000000
  -V(xc)+E(xc)   XCENC  =       175.27882079
  PAW double counting   =      6880.10529123    -8212.36467145
  entropy T*S    EENTRO =        -0.00380713
  eigenvalues    EBANDS =      -383.64135538
  atomic energy  EATOM  =      8595.27849819
  Solvation  Ediel_sol  =         0.00000000
  ---------------------------------------------------
  free energy    TOTEN  =       -11.57221135 eV

  energy without entropy =      -11.56840423  energy(sigma->0) =      -11.57030779


--------------------------------------------------------------------------------------------------------




--------------------------------------- Iteration      1(   8)  ---------------------------------------


    POTLOK:  cpu time      0.0048: real time      0.0049
    SETDIJ:  cpu time      0.1266: real time      0.1269
     EDDAV:  cpu time      0.1813: real time      0.1843
       DOS:  cpu time      0.0007: real time      0.0007
    CHARGE:  cpu time      0.0087: real time      0.0088
    MIXING:  cpu time      0.0004: real time      0.0004
    --------------------------------------------
      LOOP:  cpu time      0.3224: real time      0.3259

 eigenvalue-minimisations  :  7136
 total energy-change (2. order) : 0.1179463E-02  (-0.1383747E-02)
 number of electron      51.9999981 magnetization 
 augmentation part       33.5931366 magnetization 

 Broyden mixing:
  rms(total) = 0.46976E-02    rms(broyden)= 0.46975E-02
  rms(prec ) = 0.10154E-01
  weight for this iteration     100.00

 eigenvalues of (default mixing * dielectric matrix)
  average eigenvalue GAMMA=   1.8798
  2.7000  1.3322  1.6071

 Free energy of the ion-electron system (eV)
  ---------------------------------------------------
  alpha Z        PSCENC =       281.68605094
  Ewald energy   TEWEN  =     -5064.01715997
  -Hartree energ DENC   =     -2283.05453520
  -exchange      EXHF   =         0.00000000
  -V(xc)+E(xc)   XCENC  =       175.23042426
  PAW double counting   =      6963.59186329    -8299.23991375
  entropy T*S    EENTRO =        -0.00381400
  eigenvalues    EBANDS =      -381.04244567
  atomic energy  EATOM  =      8595.27849819
  Solvation  Ediel_sol  =         0.00000000
  ---------------------------------------------------
  free energy    TOTEN  =       -11.57103189 eV

  energy without entropy =      -11.56721789  energy(sigma->0) =      -11.56912489


--------------------------------------------------------------------------------------------------------




--------------------------------------- Iteration      1(   9)  ---------------------------------------


    POTLOK:  cpu time      0.0046: real time      0.0048
    SETDIJ:  cpu time      0.1267: real time      0.1271
     EDDAV:  cpu time      0.1835: real time      0.1850
       DOS:  cpu time      0.0007: real time      0.0007
    CHARGE:  cpu time      0.0087: real time      0.0088
    MIXING:  cpu time      0.0004: real time      0.0004
    --------------------------------------------
      LOOP:  cpu time      0.3246: real time      0.3267

 eigenvalue-minimisations  :  7408
 total energy-change (2. order) :-0.1590321E-03  (-0.1007917E-03)
 number of electron      51.9999981 magnetization 
 augmentation part       33.5967550 magnetization 

 Broyden mixing:
  rms(total) = 0.25851E-02    rms(broyden)= 0.25850E-02
  rms(prec ) = 0.52832E-02
  weight for this iteration     100.00

 eigenvalues of (default mixing * dielectric matrix)
  average eigenvalue GAMMA=   1.9641
  1.1091  1.1091  2.5500  3.0883

 Free energy of the ion-electron system (eV)
  ---------------------------------------------------
  alpha Z        PSCENC =       281.68605094
  Ewald energy   TEWEN  =     -5064.01715997
  -Hartree energ DENC   =     -2282.84549483
  -exchange      EXHF   =         0.00000000
  -V(xc)+E(xc)   XCENC  =       175.21737170
  PAW double counting   =      6964.10840891    -8299.55490793
  entropy T*S    EENTRO =        -0.00382426
  eigenvalues    EBANDS =      -381.44013368
  atomic energy  EATOM  =      8595.27849819
  Solvation  Ediel_sol  =         0.00000000
  ---------------------------------------------------
  free energy    TOTEN  =       -11.57119092 eV

  energy without entropy =      -11.56736666  energy(sigma->0) =      -11.56927879


--------------------------------------------------------------------------------------------------------




--------------------------------------- Iteration      1(  10)  ---------------------------------------


    POTLOK:  cpu time      0.0046: real time      0.0047
    SETDIJ:  cpu time      0.1252: real time      0.1271
     EDDAV:  cpu time      0.1862: real time      0.1877
       DOS:  cpu time      0.0006: real time      0.0007
    CHARGE:  cpu time      0.0087: real time      0.0088
    MIXING:  cpu time      0.0004: real time      0.0004
    --------------------------------------------
      LOOP:  cpu time      0.3257: real time      0.3294

 eigenvalue-minimisations  :  7512
 total energy-change (2. order) :-0.1060335E-04  (-0.2014628E-04)
 number of electron      51.9999981 magnetization 
 augmentation part       33.5951044 magnetization 

 Broyden mixing:
  rms(total) = 0.50839E-03    rms(broyden)= 0.50832E-03
  rms(prec ) = 0.11548E-02
  weight for this iteration     100.00

 eigenvalues of (default mixing * dielectric matrix)
  average eigenvalue GAMMA=   1.8785
  1.0970  1.0970  2.7820  2.4204  1.9962

 Free energy of the ion-electron system (eV)
  ---------------------------------------------------
  alpha Z        PSCENC =       281.68605094
  Ewald energy   TEWEN  =     -5064.01715997
  -Hartree energ DENC   =     -2283.20317313
  -exchange      EXHF   =         0.00000000
  -V(xc)+E(xc)   XCENC  =       175.23046792
  PAW double counting   =      6958.33113987    -8293.84295308
  entropy T*S    EENTRO =        -0.00382973
  eigenvalues    EBANDS =      -381.03024254
  atomic energy  EATOM  =      8595.27849819
  Solvation  Ediel_sol  =         0.00000000
  ---------------------------------------------------
  free energy    TOTEN  =       -11.57120153 eV

  energy without entropy =      -11.56737180  energy(sigma->0) =      -11.56928666


--------------------------------------------------------------------------------------------------------




--------------------------------------- Iteration      1(  11)  ---------------------------------------


    POTLOK:  cpu time      0.0046: real time      0.0048
    SETDIJ:  cpu time      0.1266: real time      0.1270
     EDDAV:  cpu time      0.1891: real time      0.1910
       DOS:  cpu time      0.0006: real time      0.0006
    CHARGE:  cpu time      0.0090: real time      0.0091
    MIXING:  cpu time      0.0005: real time      0.0005
    --------------------------------------------
      LOOP:  cpu time      0.3305: real time      0.3330

 eigenvalue-minimisations  :  7456
 total energy-change (2. order) :-0.1074089E-05  (-0.3365272E-05)
 number of electron      51.9999981 magnetization 
 augmentation part       33.5958943 magnetization 

 Broyden mixing:
  rms(total) = 0.42799E-03    rms(broyden)= 0.42797E-03
  rms(prec ) = 0.85458E-03
  weight for this iteration     100.00

 eigenvalues of (default mixing * dielectric matrix)
  average eigenvalue GAMMA=   1.9060
  3.2239  2.5825  2.4489  1.2257  0.9774  0.9774

 Free energy of the ion-electron system (eV)
  ---------------------------------------------------
  alpha Z        PSCENC =       281.68605094
  Ewald energy   TEWEN  =     -5064.01715997
  -Hartree energ DENC   =     -2283.12228225
  -exchange      EXHF   =         0.00000000
  -V(xc)+E(xc)   XCENC  =       175.22736082
  PAW double counting   =      6958.87086573    -8294.31564284
  entropy T*S    EENTRO =        -0.00382679
  eigenvalues    EBANDS =      -381.17506643
  atomic energy  EATOM  =      8595.27849819
  Solvation  Ediel_sol  =         0.00000000
  ---------------------------------------------------
  free energy    TOTEN  =       -11.57120260 eV

  energy without entropy =      -11.56737581  energy(sigma->0) =      -11.56928920


--------------------------------------------------------------------------------------------------------




--------------------------------------- Iteration      1(  12)  ---------------------------------------


    POTLOK:  cpu time      0.0048: real time      0.0050
    SETDIJ:  cpu time      0.1274: real time      0.1278
     EDDAV:  cpu time      0.1881: real time      0.1896
       DOS:  cpu time      0.0006: real time      0.0006
    CHARGE:  cpu time      0.0088: real time      0.0088
    MIXING:  cpu time      0.0004: real time      0.0004
    --------------------------------------------
      LOOP:  cpu time      0.3301: real time      0.3322

 eigenvalue-minimisations  :  7664
 total energy-change (2. order) : 0.2664019E-06  (-0.8055789E-06)
 number of electron      51.9999981 magnetization 
 augmentation part       33.5955140 magnetization 

 Broyden mixing:
  rms(total) = 0.53633E-04    rms(broyden)= 0.53592E-04
  rms(prec ) = 0.12838E-03
  weight for this iteration     100.00

 eigenvalues of (default mixing * dielectric matrix)
  average eigenvalue GAMMA=   1.7980
  3.0536  2.5256  1.8696  1.8696  1.0015  1.0015  1.2644

 Free energy of the ion-electron system (eV)
  ---------------------------------------------------
  alpha Z        PSCENC =       281.68605094
  Ewald energy   TEWEN  =     -5064.01715997
  -Hartree energ DENC   =     -2283.17793830
  -exchange      EXHF   =         0.00000000
  -V(xc)+E(xc)   XCENC  =       175.22949772
  PAW double counting   =      6958.45607544    -8293.93389849
  entropy T*S    EENTRO =        -0.00382700
  eigenvalues    EBANDS =      -381.08850087
  atomic energy  EATOM  =      8595.27849819
  Solvation  Ediel_sol  =         0.00000000
  ---------------------------------------------------
  free energy    TOTEN  =       -11.57120233 eV

  energy without entropy =      -11.56737534  energy(sigma->0) =      -11.56928883


--------------------------------------------------------------------------------------------------------




--------------------------------------- Iteration      1(  13)  ---------------------------------------


    POTLOK:  cpu time      0.0046: real time      0.0048
    SETDIJ:  cpu time      0.1265: real time      0.1269
     EDDAV:  cpu time      0.1995: real time      0.2011
       DOS:  cpu time      0.0006: real time      0.0006
    CHARGE:  cpu time      0.0087: real time      0.0087
    MIXING:  cpu time      0.0005: real time      0.0005
    --------------------------------------------
      LOOP:  cpu time      0.3405: real time      0.3426

 eigenvalue-minimisations  :  8216
 total energy-change (2. order) :-0.1102671E-06  (-0.9002373E-07)
 number of electron      51.9999981 magnetization 
 augmentation part       33.5955651 magnetization 

 Broyden mixing:
  rms(total) = 0.44858E-04    rms(broyden)= 0.44842E-04
  rms(prec ) = 0.82477E-04
  weight for this iteration     100.00

 eigenvalues of (default mixing * dielectric matrix)
  average eigenvalue GAMMA=   1.8615
  3.2933  2.6655  2.6655  2.1731  1.2405  1.0100  1.0100  0.8344

 Free energy of the ion-electron system (eV)
  ---------------------------------------------------
  alpha Z        PSCENC =       281.68605094
  Ewald energy   TEWEN  =     -5064.01715997
  -Hartree energ DENC   =     -2283.17386736
  -exchange      EXHF   =         0.00000000
  -V(xc)+E(xc)   XCENC  =       175.22932017
  PAW double counting   =      6958.51161539    -8293.98928827
  entropy T*S    EENTRO =        -0.00382755
  eigenvalues    EBANDS =      -381.09254400
  atomic energy  EATOM  =      8595.27849819
  Solvation  Ediel_sol  =         0.00000000
  ---------------------------------------------------
  free energy    TOTEN  =       -11.57120244 eV

  energy without entropy =      -11.56737490  energy(sigma->0) =      -11.56928867


--------------------------------------------------------------------------------------------------------




--------------------------------------- Iteration      1(  14)  ---------------------------------------


    POTLOK:  cpu time      0.0046: real time      0.0048
    SETDIJ:  cpu time      0.1267: real time      0.1271
     EDDAV:  cpu time      0.1370: real time      0.1381
       DOS:  cpu time      0.0006: real time      0.0006
    --------------------------------------------
      LOOP:  cpu time      0.2689: real time      0.2705

 eigenvalue-minimisations  :  4488
 total energy-change (2. order) : 0.7704148E-07  (-0.4640381E-08)
 number of electron      51.9999981 magnetization 
 augmentation part       33.5955651 magnetization 

 Free energy of the ion-electron system (eV)
  ---------------------------------------------------
  alpha Z        PSCENC =       281.68605094
  Ewald energy   TEWEN  =     -5064.01715997
  -Hartree energ DENC   =     -2283.17187989
  -exchange      EXHF   =         0.00000000
  -V(xc)+E(xc)   XCENC  =       175.22926292
  PAW double counting   =      6958.55543686    -8294.03353777
  entropy T*S    EENTRO =        -0.00382751
  eigenvalues    EBANDS =      -381.09404614
  atomic energy  EATOM  =      8595.27849819
  Solvation  Ediel_sol  =         0.00000000
  ---------------------------------------------------
  free energy    TOTEN  =       -11.57120237 eV

  energy without entropy =      -11.56737485  energy(sigma->0) =      -11.56928861


--------------------------------------------------------------------------------------------------------




 average (electrostatic) potential at core
  the test charge radii are     1.0314
  (the norm of the test charge is              1.0000)
       1 -65.2650       2 -65.2650       3 -65.2650       4 -65.2650
 
 
 
 E-fermi :   5.2340     XC(G=0): -10.7520     alpha+bet :-11.4379

 Fermi energy:         5.2340398235

 k-point     1 :       0.0000    0.0000    0.0000
  band No.  band energies     occupation 
      1      -9.9750      2.00000
      2      -9.9573      2.00000
      3      -9.9183      2.00000
      4      -9.9093      2.00000
      5      -9.9030      2.00000
      6      -9.8688      2.00000
      7      -9.8034      2.00000
      8      -9.7514      2.00000
      9      -9.7185      2.00000
     10      -9.7007      2.00000
     11      -9.6928      2.00000
     12      -9.6900      2.00000
     13      -9.6704      2.00000
     14      -9.6433      2.00000
     15      -9.6036      2.00000
     16      -9.5578      2.00000
     17      -9.5077      2.00000
     18      -9.4972      2.00000
     19      -9.4579      2.00000
     20      -9.3893      2.00000
     21      -5.9741      2.00000
     22       0.8532      2.00000
     23       1.2699      2.00000
     24       3.5605      2.00000
     25       3.7834      2.00000
     26       4.4822      2.00000
     27       6.2260      0.00000
     28       6.2616      0.00000
     29       6.3898      0.00000
     30      10.4717      0.00000
     31      10.6153      0.00000
     32      11.8542      0.00000

 k-point     2 :       0.1111   -0.0000    0.0000
  band No.  band energies     occupation 
      1      -9.9772      2.00000
      2      -9.9518      2.00000
      3      -9.9235      2.00000
      4      -9.9142      2.00000
      5      -9.8915      2.00000
      6      -9.8656      2.00000
      7      -9.8065      2.00000
      8      -9.7809      2.00000
      9      -9.7209      2.00000
     10      -9.7164      2.00000
     11      -9.6763      2.00000
     12      -9.6723      2.00000
     13      -9.6657      2.00000
     14      -9.6382      2.00000
     15      -9.5994      2.00000
     16      -9.5484      2.00000
     17      -9.5095      2.00000
     18      -9.4951      2.00000
     19      -9.4682      2.00000
     20      -9.3904      2.00000
     21      -5.8483      2.00000
     22       0.8408      2.00000
     23       1.3546      2.00000
     24       2.0010      2.00000
     25       4.1176      2.00000
     26       5.0400      1.99394
     27       5.4044      0.01600
     28       6.8360      0.00000
     29       7.9363      0.00000
     30       9.5427      0.00000
     31       9.8016      0.00000
     32      11.4140      0.00000

 k-point     3 :       0.2222   -0.0000    0.0000
  band No.  band energies     occupation 
      1      -9.9780      2.00000
      2      -9.9390      2.00000
      3      -9.9363      2.00000
      4      -9.9218      2.00000
      5      -9.8736      2.00000
      6      -9.8466      2.00000
      7      -9.8315      2.00000
      8      -9.8023      2.00000
      9      -9.7508      2.00000
     10      -9.7329      2.00000
     11      -9.6742      2.00000
     12      -9.6510      2.00000
     13      -9.6370      2.00000
     14      -9.6147      2.00000
     15      -9.5826      2.00000
     16      -9.5346      2.00000
     17      -9.5218      2.00000
     18      -9.4961      2.00000
     19      -9.4812      2.00000
     20      -9.3960      2.00000
     21      -5.4702      2.00000
     22      -0.0213      2.00000
     23       1.3671      2.00000
     24       1.5670      2.00000
     25       3.6304      2.00000
     26       4.1999      2.00000
     27       7.0663      0.00000
     28       7.6533      0.00000
     29       8.1864      0.00000
     30       8.4181      0.00000
     31      10.0653      0.00000
     32      10.6678      0.00000

 k-point     4 :       0.3333   -0.0000    0.0000
  band No.  band energies     occupation 
      1      -9.9744      2.00000
      2      -9.9430      2.00000
      3      -9.9414      2.00000
      4      -9.9088      2.00000
      5      -9.8740      2.00000
      6      -9.8735      2.00000
      7      -9.8019      2.00000
      8      -9.7935      2.00000
      9      -9.7919      2.00000
     10      -9.7412      2.00000
     11      -9.6938      2.00000
     12      -9.6351      2.00000
     13      -9.6195      2.00000
     14      -9.5734      2.00000
     15      -9.5565      2.00000
     16      -9.5487      2.00000
     17      -9.5333      2.00000
     18      -9.5138      2.00000
     19      -9.4654      2.00000
     20      -9.4096      2.00000
     21      -4.8393      2.00000
     22      -1.5002      2.00000
     23       1.5434      2.00000
     24       1.7615      2.00000
     25       3.4599      2.00000
     26       3.7826      2.00000
     27       6.7084      0.00000
     28       6.9610      0.00000
     29       8.5028      0.00000
     30       9.2108      0.00000
     31      10.1919      0.00000
     32      10.9903      0.00000

 k-point     5 :       0.4444   -0.0000    0.0000
  band No.  band energies     occupation 
      1      -9.9692      2.00000
      2      -9.9574      2.00000
      3      -9.9270      2.00000
      4      -9.9070      2.00000
      5      -9.8841      2.00000
      6      -9.8798      2.00000
      7      -9.8171      2.00000
      8      -9.8068      2.00000
      9      -9.7542      2.00000
     10      -9.7206      2.00000
     11      -9.7145      2.00000
     12      -9.6594      2.00000
     13      -9.6075      2.00000
     14      -9.5735      2.00000
     15      -9.5444      2.00000
     16      -9.5307      2.00000
     17      -9.5296      2.00000
     18      -9.5235      2.00000
     19      -9.4505      2.00000
     20      -9.4307      2.00000
     21      -3.9586      2.00000
     22      -2.8380      2.00000
     23       1.7123      2.00000
     24       1.7943      2.00000
     25       3.6320      2.00000
     26       3.7212      2.00000
     27       5.9395      0.00000
     28       6.0461      0.00000
     29       9.2341      0.00000
     30       9.4756      0.00000
     31      10.3433      0.00000
     32      10.7043      0.00000

 k-point     6 :       0.1111    0.1111    0.0000
  band No.  band energies     occupation 
      1      -9.9743      2.00000
      2      -9.9438      2.00000
      3      -9.9406      2.00000
      4      -9.9168      2.00000
      5      -9.8657      2.00000
      6      -9.8464      2.00000
      7      -9.8300      2.00000
      8      -9.7999      2.00000
      9      -9.7263      2.00000
     10      -9.6997      2.00000
     11      -9.6837      2.00000
     12      -9.6781      2.00000
     13      -9.6664      2.00000
     14      -9.6271      2.00000
     15      -9.5936      2.00000
     16      -9.5311      2.00000
     17      -9.5153      2.00000
     18      -9.4905      2.00000
     19      -9.4860      2.00000
     20      -9.3883      2.00000
     21      -5.5904      2.00000
     22       0.5527      2.00000
     23       0.7981      2.00000
     24       1.6719      2.00000
     25       3.9110      2.00000
     26       4.7511      2.00000
     27       6.3784      0.00000
     28       7.4468      0.00000
     29       8.4110      0.00000
     30       8.4991      0.00000
     31       9.8427      0.00000
     32      10.8234      0.00000

[...]
     28       6.0576      0.00000
     29       7.7764      0.00000
     30       8.8233      0.00000
     31      10.4394      0.00000
     32      11.5566      0.00000

 k-point    94 :      -0.2222    0.2222    0.4286
  band No.  band energies     occupation 
      1     -10.3374      2.00000
      2     -10.3271      2.00000
      3     -10.2952      2.00000
      4     -10.2766      2.00000
      5     -10.2751      2.00000
      6     -10.2479      2.00000
      7     -10.2231      2.00000
      8     -10.1963      2.00000
      9     -10.1596      2.00000
     10     -10.1257      2.00000
     11     -10.0808      2.00000
     12     -10.0484      2.00000
     13     -10.0332      2.00000
     14     -10.0234      2.00000
     15      -9.9386      2.00000
     16      -9.9231      2.00000
     17      -9.9230      2.00000
     18      -9.9126      2.00000
     19      -9.9068      2.00000
     20      -9.8799      2.00000
     21      -4.2491      2.00000
     22      -3.2227      2.00000
     23       1.6608      2.00000
     24       2.0404      2.00000
     25       3.6331      2.00000
     26       4.4642      1.99978
     27       4.6562      1.67306
     28       4.8122      0.22046
     29       7.5727      0.00000
     30       8.6288      0.00000
     31       9.6763      0.00000
     32      10.6501      0.00000

 k-point    95 :       0.3333    0.3333    0.4286
  band No.  band energies     occupation 
      1     -10.3625      2.00000
      2     -10.3353      2.00000
      3     -10.3187      2.00000
      4     -10.3049      2.00000
      5     -10.2578      2.00000
      6     -10.2359      2.00000
      7     -10.2150      2.00000
      8     -10.2113      2.00000
      9     -10.1431      2.00000
     10     -10.1064      2.00000
     11     -10.0725      2.00000
     12     -10.0601      2.00000
     13     -10.0027      2.00000
     14      -9.9952      2.00000
     15      -9.9872      2.00000
     16      -9.9854      2.00000
     17      -9.9125      2.00000
     18      -9.9076      2.00000
     19      -9.8635      2.00000
     20      -9.8443      2.00000
     21      -2.2983      2.00000
     22      -1.6477      2.00000
     23      -1.5474      2.00000
     24      -0.7764      2.00000
     25       1.1898      2.00000
     26       1.6603      2.00000
     27       8.3247      0.00000
     28       8.8502      0.00000
     29       9.3985      0.00000
     30       9.6091      0.00000
     31      10.4404      0.00000
     32      10.5476      0.00000

 k-point    96 :       0.4444    0.3333    0.4286
  band No.  band energies     occupation 
      1     -10.3620      2.00000
      2     -10.3322      2.00000
      3     -10.3130      2.00000
      4     -10.3099      2.00000
      5     -10.2429      2.00000
      6     -10.2373      2.00000
      7     -10.2274      2.00000
      8     -10.2105      2.00000
      9     -10.1424      2.00000
     10     -10.1026      2.00000
     11     -10.0721      2.00000
     12     -10.0634      2.00000
     13     -10.0050      2.00000
     14      -9.9932      2.00000
     15      -9.9820      2.00000
     16      -9.9679      2.00000
     17      -9.9211      2.00000
     18      -9.9187      2.00000
     19      -9.8710      2.00000
     20      -9.8510      2.00000
     21      -2.8344      2.00000
     22      -1.9507      2.00000
     23      -0.7342      2.00000
     24      -0.4895      2.00000
     25       1.6363      2.00000
     26       1.6862      2.00000
     27       6.5253      0.00000
     28       7.4447      0.00000
     29       9.3071      0.00000
     30      10.3461      0.00000
     31      10.9906      0.00000
     32      11.5766      0.00000

 k-point    97 :      -0.4444    0.3333    0.4286
  band No.  band energies     occupation 
      1     -10.3607      2.00000
      2     -10.3364      2.00000
      3     -10.2992      2.00000
      4     -10.2912      2.00000
      5     -10.2585      2.00000
      6     -10.2458      2.00000
      7     -10.2276      2.00000
      8     -10.2011      2.00000
      9     -10.1502      2.00000
     10     -10.1123      2.00000
     11     -10.0613      2.00000
     12     -10.0513      2.00000
     13     -10.0109      2.00000
     14      -9.9996      2.00000
     15      -9.9793      2.00000
     16      -9.9583      2.00000
     17      -9.9262      2.00000
     18      -9.9197      2.00000
     19      -9.8797      2.00000
     20      -9.8604      2.00000
     21      -3.3484      2.00000
     22      -2.3865      2.00000
     23      -0.2078      2.00000
     24       0.2080      2.00000
     25       2.2603      2.00000
     26       2.8296      2.00000
     27       4.8860      0.02322
     28       5.7918      0.00000
     29       9.2635      0.00000
     30      10.4345      0.00000
     31      11.2997      0.00000
     32      12.1429      0.00000

 k-point    98 :      -0.3333    0.3333    0.4286
  band No.  band energies     occupation 
      1     -10.3554      2.00000
      2     -10.3360      2.00000
      3     -10.2814      2.00000
      4     -10.2797      2.00000
      5     -10.2778      2.00000
      6     -10.2530      2.00000
      7     -10.2244      2.00000
      8     -10.1965      2.00000
      9     -10.1574      2.00000
     10     -10.1198      2.00000
     11     -10.0632      2.00000
     12     -10.0407      2.00000
     13     -10.0235      2.00000
     14     -10.0088      2.00000
     15      -9.9698      2.00000
     16      -9.9471      2.00000
     17      -9.9251      2.00000
     18      -9.9132      2.00000
     19      -9.8885      2.00000
     20      -9.8707      2.00000
     21      -3.7275      2.00000
     22      -2.7285      2.00000
     23       0.3091      2.00000
     24       0.8967      2.00000
     25       3.2440      2.00000
     26       3.8123      2.00000
     27       4.3182      2.00000
     28       4.3572      2.00000
     29       8.9308      0.00000
     30      10.2236      0.00000
     31      11.0946      0.00000
     32      11.5106      0.00000

 k-point    99 :       0.4444    0.4444    0.4286
  band No.  band energies     occupation 
      1     -10.3665      2.00000
      2     -10.3373      2.00000
      3     -10.3000      2.00000
      4     -10.2968      2.00000
      5     -10.2539      2.00000
      6     -10.2474      2.00000
      7     -10.2274      2.00000
      8     -10.2001      2.00000
      9     -10.1414      2.00000
     10     -10.1053      2.00000
     11     -10.0615      2.00000
     12     -10.0508      2.00000
     13     -10.0076      2.00000
     14     -10.0016      2.00000
     15      -9.9784      2.00000
     16      -9.9779      2.00000
     17      -9.9261      2.00000
     18      -9.9182      2.00000
     19      -9.8773      2.00000
     20      -9.8548      2.00000
     21      -2.9840      2.00000
     22      -2.1136      2.00000
     23      -0.6487      2.00000
     24      -0.3068      2.00000
     25       2.0417      2.00000
     26       2.7011      2.00000
     27       4.7706      0.52400
     28       5.6936      0.00000
     29      10.5180      0.00000
     30      10.9409      0.00000
     31      11.6986      0.00000
     32      12.2898      0.00000

 k-point   100 :      -0.4444    0.4444    0.4286
  band No.  band energies     occupation 
      1     -10.3663      2.00000
      2     -10.3399      2.00000
      3     -10.2851      2.00000
      4     -10.2761      2.00000
      5     -10.2757      2.00000
      6     -10.2597      2.00000
      7     -10.2253      2.00000
      8     -10.1969      2.00000
      9     -10.1450      2.00000
     10     -10.1095      2.00000
     11     -10.0496      2.00000
     12     -10.0381      2.00000
     13     -10.0165      2.00000
     14      -9.9984      2.00000
     15      -9.9974      2.00000
     16      -9.9712      2.00000
     17      -9.9271      2.00000
     18      -9.9140      2.00000
     19      -9.8808      2.00000
     20      -9.8588      2.00000
     21      -3.1815      2.00000
     22      -2.2673      2.00000
     23      -0.5712      2.00000
     24      -0.0145      2.00000
     25       3.0320      2.00000
     26       3.4835      2.00000
     27       4.1174      2.00000
     28       4.1262      2.00000
     29      10.2240      0.00000
     30      11.2508      0.00000
     31      12.2384      0.00000
     32      12.5470      0.00000


--------------------------------------------------------------------------------------------------------


 soft charge-density along one line, spin component           1
         0         1         2         3         4         5         6         7         8         9
 total charge-density along one line
 
 pseudopotential strength for first ion, spin component:           1
-13.388  -0.000  -0.000   0.010  -0.000   1.659   0.000   0.000
 -0.000 -13.379   0.006   0.000  -0.008   0.000   1.653  -0.004
 -0.000   0.006 -13.391  -0.000   0.014   0.000  -0.004   1.661
  0.010   0.000  -0.000 -13.402  -0.000  -0.006  -0.000   0.000
 -0.000  -0.008   0.014  -0.000 -13.390   0.000   0.005  -0.008
  1.659   0.000   0.000  -0.006   0.000   4.208  -0.000  -0.000
  0.000   1.653  -0.004  -0.000   0.005  -0.000   4.211   0.001
  0.000  -0.004   1.661   0.000  -0.008  -0.000   0.001   4.208
 -0.006  -0.000   0.000   1.667   0.000   0.002   0.000  -0.000
  0.000   0.005  -0.008   0.000   1.660  -0.000  -0.002   0.003
  0.000  -0.001   0.000  -0.000   0.001  -0.000  -0.003   0.000
 -0.000  -0.004   0.000   0.000   0.005   0.000   0.001  -0.000
 -0.000  -0.001   0.002  -0.000   0.004   0.000  -0.001   0.001
 -0.000  -0.002  -0.001  -0.000   0.001   0.000  -0.000   0.000
 -0.003  -0.000  -0.000  -0.000   0.000  -0.000   0.000  -0.000
  0.000  -0.001   0.001   0.000   0.001  -0.000   0.001  -0.003
  0.000   0.003   0.001   0.000   0.001  -0.000   0.008   0.002
  0.002   0.000  -0.000   0.001  -0.000   0.007  -0.000   0.000
 total augmentation occupancy for first ion, spin component:           1
  2.000   0.000   0.000  -0.000   0.000   0.006   0.000   0.000  -0.001   0.000   0.000   0.000  -0.000   0.000  -0.005   0.000
  0.000   2.002  -0.000   0.000  -0.001  -0.000   0.010  -0.000   0.000  -0.003   0.001   0.001   0.006  -0.008  -0.000   0.001
  0.000  -0.000   2.001   0.000   0.000   0.000  -0.000   0.008   0.000   0.000   0.000  -0.000  -0.006  -0.002   0.000  -0.001
 -0.000   0.000   0.000   2.001   0.000  -0.001  -0.000   0.000   0.008  -0.000   0.000   0.000   0.000  -0.000  -0.005   0.000
  0.000  -0.001   0.000   0.000   2.002   0.000  -0.003   0.000   0.000   0.010  -0.002  -0.001  -0.007  -0.005   0.000  -0.001
  0.006   0.000   0.000  -0.001   0.000   0.013  -0.000   0.000  -0.002  -0.000   0.000   0.000  -0.000   0.000  -0.043  -0.000
  0.000   0.010  -0.000  -0.000  -0.003   0.000   0.020  -0.000   0.000  -0.004   0.015   0.000   0.046  -0.060   0.000   0.001
 -0.000  -0.000   0.008   0.000   0.000   0.000  -0.000   0.015   0.000  -0.001  -0.001  -0.000  -0.038  -0.020   0.000  -0.001
 -0.001   0.000   0.000   0.008   0.000  -0.002  -0.000  -0.000   0.018  -0.000  -0.000   0.000  -0.000  -0.000  -0.031   0.000
  0.000  -0.003   0.000   0.000   0.010   0.000  -0.004  -0.001  -0.000   0.021  -0.021   0.000  -0.050  -0.036   0.000  -0.001
  0.000   0.001   0.000   0.000  -0.002   0.000   0.015  -0.001   0.000  -0.021   1.616   0.017   0.063   0.012   0.000   0.001
  0.000   0.001  -0.000   0.000  -0.001  -0.000   0.000  -0.000  -0.000   0.000   0.017   0.001  -0.002  -0.001   0.000  -0.000
  0.000   0.006  -0.006   0.000  -0.007   0.000   0.046  -0.038   0.000  -0.050   0.063  -0.002   0.881   0.064   0.000   0.012
  0.000  -0.008  -0.002   0.000  -0.005   0.000  -0.060  -0.020   0.000  -0.036   0.012  -0.001   0.064   0.797   0.000   0.001
 -0.005  -0.000   0.000  -0.005   0.000  -0.043  -0.000   0.000  -0.031   0.000   0.000   0.000   0.000  -0.000   0.741   0.000
  0.000   0.001  -0.001   0.000  -0.001   0.000   0.001  -0.001   0.000  -0.001   0.001  -0.000   0.012   0.001   0.000   0.000
  0.000   0.000  -0.000   0.000  -0.000   0.000  -0.001  -0.000  -0.000  -0.001   0.000  -0.000   0.001   0.011   0.000   0.000
  0.000   0.000   0.000  -0.000  -0.000  -0.001   0.000  -0.000  -0.000   0.000   0.000  -0.000   0.000  -0.000   0.010   0.000


------------------------ aborting loop because EDIFF is reached ----------------------------------------





 total charge

# of ion       s       p       d       tot
------------------------------------------
    1        0.962   0.684   9.953  11.598
    2        0.962   0.684   9.953  11.598
    3        0.962   0.684   9.953  11.598
    4        0.962   0.684   9.953  11.598
--------------------------------------------------
tot          3.847   2.735  39.812  46.394
 
    CHARGE:  cpu time      0.0087: real time      0.0088
    FORLOC:  cpu time      0.0004: real time      0.0004
    FORNL :  cpu time      0.0368: real time      0.0369
    STRESS:  cpu time      0.2670: real time      0.2690
    FORCOR:  cpu time      0.0048: real time      0.0048
    FORHAR:  cpu time      0.0011: real time      0.0011
    MIXING:  cpu time      0.0005: real time      0.0005
    OFIELD:  cpu time      0.0000: real time      0.0000

  FORCE on cell =-STRESS in cart. coord.  units (eV):
  Direction    XX          YY          ZZ          XY          YZ          ZX
  --------------------------------------------------------------------------------------
  Alpha Z   267.47872   267.47872   267.47872
  Ewald   -1563.01665 -1797.50492 -1618.38762    -0.00000    -0.00000     0.00000
  Hartree   853.68160   668.69509   811.99233     0.00000    -0.00000    -0.00000
  E(xc)    -313.41677  -313.34210  -313.41920     0.00000    -0.00000    -0.00000
  Local     -25.05884   389.67748    70.17341    -0.00000     0.00000    -0.00000
  n-local    37.16827    40.87410    38.74900     0.86265     0.30615    -0.04438
  augment   487.96377   488.09598   487.94648    -0.00000     0.00000     0.00000
  Kinetic   255.19109   256.02895   255.46687     3.34528     1.07442    -0.77125
  Fock        0.00000     0.00000     0.00000     0.00000     0.00000     0.00000
  -------------------------------------------------------------------------------------
  Total      -0.00881     0.00331    -0.00001     0.00000     0.00000     0.00000
  in kB      -0.17466     0.06562    -0.00017     0.00000     0.00000     0.00000
  external pressure =       -0.04 kB  Pullay stress =        0.00 kB


 VOLUME and BASIS-vectors are now :
 -----------------------------------------------------------------------------
  energy-cutoff  :      400.00
  volume of cell :       80.78
      direct lattice vectors                 reciprocal lattice vectors
     2.306141888 -3.863293436 -0.000000000     0.216812332 -0.129423252 -0.000000000
     2.306141888  3.863293436  0.000000000     0.216812332  0.129423252  0.000000000
     0.000000000 -0.000000000  4.533268647     0.000000000 -0.000000000  0.220591383

  length of vectors
     4.499258448  4.499258448  4.533268647     0.252503397  0.252503397  0.220591383


 FORCES acting on ions
    electron-ion (+dipol)            ewald-force                    non-local-force                 convergence-correction
 -----------------------------------------------------------------------------------------------
   -.206E-06 -.753E+02 -.497E+01   -.270E-15 0.792E+02 0.587E+01   0.271E-16 -.395E+01 -.900E+00   -.948E-13 0.808E-03 -.100E-03
   -.206E-06 0.753E+02 -.497E+01   0.188E-13 -.792E+02 0.587E+01   -.651E-16 0.395E+01 -.900E+00   0.142E-12 -.808E-03 -.100E-03
   0.206E-06 0.753E+02 0.497E+01   -.238E-13 -.792E+02 -.587E+01   -.341E-16 0.395E+01 0.900E+00   0.120E-12 -.808E-03 0.100E-03
   0.206E-06 -.753E+02 0.497E+01   -.252E-14 0.792E+02 -.587E+01   0.303E-17 -.395E+01 0.900E+00   -.124E-12 0.808E-03 0.100E-03
 -----------------------------------------------------------------------------------------------
   0.436E-11 0.716E-11 0.131E-10   -.780E-14 0.000E+00 -.888E-15   -.691E-16 0.444E-15 0.000E+00   0.437E-13 0.557E-13 -.128E-12
 
 
 POSITION                                       TOTAL-FORCE (eV/Angst)
 -----------------------------------------------------------------------------------
      2.30614     -1.20419      1.88641        -0.000000      0.003010      0.000847
      2.30614     -2.65910      4.15304        -0.000000     -0.003010      0.000847
      2.30614      1.20419      2.64686         0.000000     -0.003010     -0.000847
      2.30614      2.65910      0.38023         0.000000      0.003010     -0.000847
 -----------------------------------------------------------------------------------
    total drift:                                0.000000      0.000000      0.000000


--------------------------------------------------------------------------------------------------------



  FREE ENERGIE OF THE ION-ELECTRON SYSTEM (eV)
  ---------------------------------------------------
  free  energy   TOTEN  =       -11.61456299 eV

  energy  without entropy=      -11.61143910  energy(sigma->0) =      -11.61300105
 
 d Force = 0.7061614E-05[ 0.536E-05, 0.876E-05]  d Energy = 0.1620498E-04-0.914E-05
 d Force = 0.1371127E+00[ 0.137E+00, 0.137E+00]  d Ewald  = 0.3691394E+00-0.232E+00


--------------------------------------------------------------------------------------------------------


    POTLOK:  cpu time      0.1309: real time      0.1313


--------------------------------------------------------------------------------------------------------


 stress matrix after NEB project (eV)
     -0.00881      0.00000      0.00000
      0.00000      0.00331      0.00000
      0.00000      0.00000     -0.00001
  FORCES: max atom, RMS     0.003126    0.003126
  FORCE total and by dimension    0.006253    0.003010
  Stress total and by dimension    0.009407    0.008806
 Conjugate gradient step on ions:
 trial-energy change:   -0.000016  1 .order   -0.000016   -0.000022   -0.000009
  (g-gl).g = 0.726E-05      g.g   = 0.139E-04  gl.gl    = 0.157E-03
 g(Force)  = 0.495E-05   g(Stress)= 0.897E-05 ortho     = 0.744E-06
 gamma     =   0.04637
 trial     =   1.56849
 opt step  =   2.32375  (harmonic =   2.69133) maximal distance =0.00063456
 next E    =   -11.614565   (d E  =  -0.00002)


--------------------------------------------------------------------------------------------------------


  
 reached required accuracy - stopping structural energy minimisation
     LOOP+:  cpu time      2.5380: real time      2.5680
    4ORBIT:  cpu time      0.0000: real time      0.0000



 total charge

# of ion       s       p       d       tot
------------------------------------------
    1        0.962   0.684   9.953  11.598
    2        0.962   0.684   9.953  11.598
    3        0.962   0.684   9.953  11.598
    4        0.962   0.684   9.953  11.598
--------------------------------------------------
tot          3.847   2.735  39.812  46.394
 

 total amount of memory used by VASP MPI-rank0    62180. kBytes
=======================================================================

   base      :      30000. kBytes
   nonl-proj :      20712. kBytes
   fftplans  :        537. kBytes
   grid      :       1244. kBytes
   one-center:         62. kBytes
   wavefun   :       9625. kBytes
 
  
  
 General timing and accounting informations for this job:
 ========================================================
  
                  Total CPU time used (sec):       38.553
                            User time (sec):       38.077
                          System time (sec):        0.477
                         Elapsed time (sec):       40.108
  
                   Maximum memory used (kb):      334136.
                   Average memory used (kb):          N/A
  
                          Minor page faults:        54742
                          Major page faults:          250
                 Voluntary context switches:         3304
