PROCAR new format
# of k-points:  100         # of bands:   32         # of ions:    4

 k-point     1 :    0.00000000 0.00000000 0.00000000     weight = 0.00176367

band     1 # energy  -10.33181533 # occ.  2.00000000
 
ion      s      p      d    tot
    1  0.000  0.000  0.245  0.245
    2  0.000  0.000  0.245  0.245
    3  0.000  0.000  0.245  0.245
    4  0.000  0.000  0.245  0.245
tot    0.000  0.001  0.981  0.982
 
band     2 # energy  -10.33035486 # occ.  2.00000000
 
ion      s      p      d    tot
    1  0.000  0.000  0.245  0.245
    2  0.000  0.000  0.245  0.245
    3  0.000  0.000  0.245  0.245
    4  0.000  0.000  0.245  0.245
tot    0.000  0.000  0.981  0.982
 
band     3 # energy  -10.30788168 # occ.  2.00000000
 
ion      s      p      d    tot
    1  0.000  0.000  0.246  0.247
    2  0.000  0.000  0.246  0.247
    3  0.000  0.000  0.246  0.247
    4  0.000  0.000  0.246  0.247
tot    0.001  0.001  0.985  0.987
 
band     4 # energy  -10.28738141 # occ.  2.00000000
 
ion      s      p      d    tot
    1  0.000  0.000  0.247  0.247
    2  0.000  0.000  0.247  0.247
    3  0.000  0.000  0.247  0.247
    4  0.000  0.000  0.247  0.247
tot    0.000  0.002  0.986  0.988
 
band     5 # energy  -10.25751503 # occ.  2.00000000
 
ion      s      p      d    tot
    1  0.000  0.000  0.246  0.246
    2  0.000  0.000  0.246  0.246
    3  0.000  0.000  0.246  0.246
    4  0.000  0.000  0.246  0.246
tot    0.000  0.000  0.984  0.985
 
band     6 # energy  -10.24135300 # occ.  2.00000000
 
ion      s      p      d    tot
    1  0.001  0.000  0.245  0.246
    2  0.001  0.000  0.245  0.246
    3  0.001  0.000  0.245  0.246
    4  0.001  0.000  0.245  0.246
tot    0.002  0.001  0.980  0.984
 
band     7 # energy  -10.17885013 # occ.  2.00000000
 
ion      s      p      d    tot
    1  0.000  0.000  0.245  0.246
    2  0.000  0.000  0.245  0.246
    3  0.000  0.000  0.245  0.246
    4  0.000  0.000  0.245  0.246
tot    0.001  0.002  0.980  0.983
 
band     8 # energy  -10.14016796 # occ.  2.00000000
 
ion      s      p      d    tot
    1  0.000  0.000  0.247  0.247
    2  0.000  0.000  0.247  0.247
    3  0.000  0.000  0.247  0.247
    4  0.000  0.000  0.247  0.247
tot    0.000  0.001  0.988  0.989
 
band     9 # energy  -10.12105821 # occ.  2.00000000
 
ion      s      p      d    tot
    1  0.000  0.000  0.246  0.247
    2  0.000  0.000  0.246  0.247
    3  0.000  0.000  0.246  0.247
    4  0.000  0.000  0.246  0.247
tot    0.000  0.001  0.985  0.986
 
band    10 # energy  -10.10261191 # occ.  2.00000000
 
ion      s      p      d    tot
    1  0.000  0.000  0.248  0.248
    2  0.000  0.000  0.248  0.248
    3  0.000  0.000  0.248  0.248
    4  0.000  0.000  0.248  0.248
tot    0.000  0.001  0.992  0.993
 
band    11 # energy  -10.09593079 # occ.  2.00000000
 
ion      s      p      d    tot
    1  0.000  0.000  0.245  0.246
    2  0.000  0.000  0.245  0.246
    3  0.000  0.000  0.245  0.246
    4  0.000  0.000  0.245  0.246
tot    0.001  0.002  0.982  0.984
 
band    12 # energy  -10.08170697 # occ.  2.00000000
 
ion      s      p      d    tot
    1  0.000  0.000  0.247  0.248
    2  0.000  0.000  0.247  0.248
    3  0.000  0.000  0.247  0.248
    4  0.000  0.000  0.247  0.248
tot    0.000  0.001  0.989  0.990
 
band    13 # energy  -10.07825652 # occ.  2.00000000
 
ion      s      p      d    tot
    1  0.000  0.000  0.247  0.248
    2  0.000  0.000  0.247  0.248
    3  0.000  0.000  0.247  0.248
    4  0.000  0.000  0.247  0.248
tot    0.000  0.000  0.990  0.990
 
band    14 # energy  -10.03746179 # occ.  2.00000000
 
ion      s      p      d    tot
    1  0.000  0.000  0.248  0.248
    2  0.000  0.000  0.248  0.248
    3  0.000  0.000  0.248  0.248
    4  0.000  0.000  0.248  0.248
tot    0.000  0.001  0.990  0.991
 
band    15 # energy  -10.02944333 # occ.  2.00000000
 
ion      s      p      d    tot
    1  0.000  0.000  0.248  0.248
    2  0.000  0.000  0.248  0.248
    3  0.000  0.000  0.248  0.248
    4  0.000  0.000  0.248  0.248
tot    0.000  0.000  0.993  0.994
 
band    16 # energy   -9.97717439 # occ.  2.00000000
 
ion      s      p      d    tot
    1  0.000  0.000  0.248  0.248
    2  0.000  0.000  0.248  0.248
    3  0.000  0.000  0.248  0.248
    4  0.000  0.000  0.248  0.248
tot    0.001  0.000  0.992  0.993
 
band    17 # energy   -9.93016331 # occ.  2.00000000
 
ion      s      p      d    tot
    1  0.000  0.000  0.249  0.249
    2  0.000  0.000  0.249  0.249
    3  0.000  0.000  0.249  0.249
    4  0.000  0.000  0.249  0.249
tot    0.000  0.000  0.996  0.996
 
band    18 # energy   -9.90997072 # occ.  2.00000000
 
ion      s      p      d    tot
    1  0.000  0.000  0.249  0.249
    2  0.000  0.000  0.249  0.249
    3  0.000  0.000  0.249  0.249
    4  0.000  0.000  0.249  0.249
tot    0.000  0.000  0.995  0.995
 
band    19 # energy   -9.90041179 # occ.  2.00000000
 
ion      s      p      d    tot
    1  0.000  0.000  0.249  0.249
    2  0.000  0.000  0.249  0.249
    3  0.000  0.000  0.249  0.249
    4  0.000  0.000  0.249  0.249
tot    0.000  0.000  0.997  0.997
 
band    20 # energy   -9.80975746 # occ.  2.00000000
 
ion      s      p      d    tot
    1  0.000  0.000  0.249  0.249
    2  0.000  0.000  0.249  0.249
    3  0.000  0.000  0.249  0.249
    4  0.000  0.000  0.249  0.249
tot    0.000  0.000  0.996  0.996
 
band    21 # energy   -6.04905973 # occ.  2.00000000
 
ion      s      p      d    tot
    1  0.134  0.000  0.000  0.134
    2  0.134  0.000  0.000  0.134
    3  0.134  0.000  0.000  0.134
    4  0.134  0.000  0.000  0.134
tot    0.534  0.001  0.000  0.536
 
band    22 # energy    0.62719574 # occ.  2.00000000
 
ion      s      p      d    tot
    1  0.144  0.026  0.007  0.177
    2  0.144  0.026  0.007  0.177
    3  0.144  0.026  0.007  0.177
    4  0.144  0.026  0.007  0.177
tot    0.576  0.106  0.026  0.708
 
band    23 # energy    1.20725842 # occ.  2.00000000
 
ion      s      p      d    tot
    1  0.072  0.068  0.005  0.145
    2  0.072  0.068  0.005  0.145
    3  0.072  0.068  0.005  0.145
    4  0.072  0.068  0.005  0.145
tot    0.289  0.273  0.019  0.581
 
band    24 # energy    2.72845628 # occ.  2.00000000
 
ion      s      p      d    tot
    1  0.159  0.016  0.012  0.188
    2  0.159  0.016  0.012  0.188
    3  0.159  0.016  0.012  0.188
    4  0.159  0.016  0.012  0.188
tot    0.637  0.065  0.049  0.751
 
band    25 # energy    3.04295795 # occ.  2.00000000
 
ion      s      p      d    tot
    1  0.000  0.119  0.009  0.128
    2  0.000  0.119  0.009  0.128
    3  0.000  0.119  0.009  0.128
    4  0.000  0.119  0.009  0.128
tot    0.000  0.478  0.034  0.512
 
band    26 # energy    4.09761505 # occ.  2.00000000
 
ion      s      p      d    tot
    1  0.000  0.128  0.006  0.135
    2  0.000  0.128  0.006  0.135
    3  0.000  0.128  0.006  0.135
    4  0.000  0.128  0.006  0.135
tot    0.000  0.513  0.025  0.539
 
band    27 # energy    5.62093930 # occ.  0.00000000
 
ion      s      p      d    tot
    1  0.004  0.099  0.019  0.122
    2  0.004  0.099  0.019  0.122
    3  0.004  0.099  0.019  0.122
    4  0.004  0.099  0.019  0.122
tot    0.016  0.395  0.077  0.487
 
band    28 # energy    5.68397162 # occ.  0.00000000
 
ion      s      p      d    tot
    1  0.081  0.042  0.019  0.142
    2  0.081  0.042  0.019  0.142
    3  0.081  0.042  0.019  0.142
    4  0.081  0.042  0.019  0.142
tot    0.325  0.167  0.077  0.569
 
band    29 # energy    5.78084076 # occ.  0.00000000
 
ion      s      p      d    tot
    1  0.000  0.095  0.019  0.113
    2  0.000  0.095  0.019  0.113
    3  0.000  0.095  0.019  0.113
    4  0.000  0.095  0.019  0.113
tot    0.000  0.379  0.075  0.453
 
band    30 # energy    9.63038027 # occ.  0.00000000
 
ion      s      p      d    tot
    1  0.043  0.132  0.006  0.181
    2  0.043  0.132  0.006  0.181
    3  0.043  0.132  0.006  0.181
    4  0.043  0.132  0.006  0.181
tot    0.172  0.528  0.023  0.723
 
band    31 # energy   10.11701351 # occ.  0.00000000
 
ion      s      p      d    tot
    1  0.000  0.130  0.025  0.155
    2  0.000  0.130  0.025  0.155
    3  0.000  0.130  0.025  0.155
    4  0.000  0.130  0.025  0.155
tot    0.000  0.520  0.099  0.619
 
band    32 # energy   11.06048103 # occ.  0.00000000
 
ion      s      p      d    tot
    1  0.065  0.085  0.015  0.165
    2  0.065  0.085  0.015  0.165
    3  0.065  0.085  0.015  0.165
    4  0.065  0.085  0.015  0.165
tot    0.260  0.341  0.062  0.662
 

 k-point     2 :    0.11111111-0.00000000 0.00000000     weight = 0.00705467

band     1 # energy  -10.33276612 # occ.  2.00000000
 
ion      s      p      d    tot
    1  0.000  0.000  0.245  0.245
    2  0.000  0.000  0.245  0.245
    3  0.000  0.000  0.245  0.245
    4  0.000  0.000  0.245  0.245
tot    0.000  0.000  0.980  0.981
 
band     2 # energy  -10.32692385 # occ.  2.00000000
 
ion      s      p      d    tot
    1  0.000  0.000  0.245  0.246
    2  0.000  0.000  0.245  0.246
    3  0.000  0.000  0.245  0.246
    4  0.000  0.000  0.245  0.246
tot    0.000  0.001  0.981  0.982
 
band     3 # energy  -10.31004257 # occ.  2.00000000
 
ion      s      p      d    tot
    1  0.000  0.000  0.246  0.247
    2  0.000  0.000  0.246  0.247
    3  0.000  0.000  0.246  0.247
    4  0.000  0.000  0.246  0.247
tot    0.001  0.001  0.985  0.987
 
band     4 # energy  -10.29225853 # occ.  2.00000000
 
ion      s      p      d    tot
    1  0.000  0.000  0.246  0.247
    2  0.000  0.000  0.246  0.247
    3  0.000  0.000  0.246  0.247
    4  0.000  0.000  0.246  0.247
tot    0.000  0.002  0.986  0.988
 
band     5 # energy  -10.25027758 # occ.  2.00000000
 
ion      s      p      d    tot
    1  0.000  0.000  0.246  0.246
    2  0.000  0.000  0.246  0.246
    3  0.000  0.000  0.246  0.246
    4  0.000  0.000  0.246  0.246
tot    0.000  0.000  0.984  0.985
 
band     6 # energy  -10.23860534 # occ.  2.00000000
 
ion      s      p      d    tot
    1  0.000  0.000  0.245  0.246
    2  0.000  0.000  0.245  0.246
    3  0.000  0.000  0.245  0.246
    4  0.000  0.000  0.245  0.246
tot    0.002  0.001  0.981  0.984
 
band     7 # energy  -10.18538239 # occ.  2.00000000
 
ion      s      p      d    tot
    1  0.000  0.000  0.245  0.246
    2  0.000  0.000  0.245  0.246
    3  0.000  0.000  0.245  0.246
    4  0.000  0.000  0.245  0.246
tot    0.001  0.001  0.980  0.983
 
band     8 # energy  -10.16558398 # occ.  2.00000000
 
ion      s      p      d    tot
    1  0.000  0.000  0.247  0.247
    2  0.000  0.000  0.247  0.247
    3  0.000  0.000  0.247  0.247
    4  0.000  0.000  0.247  0.247
tot    0.001  0.001  0.986  0.988
 
band     9 # energy  -10.12257076 # occ.  2.00000000
 
ion      s      p      d    tot
    1  0.000  0.000  0.247  0.247
    2  0.000  0.000  0.247  0.247
    3  0.000  0.000  0.247  0.247
    4  0.000  0.000  0.247  0.247
tot    0.000  0.001  0.989  0.989
 
band    10 # energy  -10.11706872 # occ.  2.00000000
 
ion      s      p      d    tot
    1  0.000  0.000  0.246  0.247
    2  0.000  0.000  0.246  0.247
    3  0.000  0.000  0.246  0.247
    4  0.000  0.000  0.246  0.247
tot    0.000  0.001  0.986  0.987
 
band    11 # energy  -10.07568441 # occ.  2.00000000
 
ion      s      p      d    tot
    1  0.000  0.000  0.248  0.248
    2  0.000  0.000  0.248  0.248
    3  0.000  0.000  0.248  0.248
    4  0.000  0.000  0.248  0.248
tot    0.000  0.000  0.990  0.991
 
band    12 # energy  -10.07245759 # occ.  2.00000000
 
ion      s      p      d    tot
    1  0.000  0.000  0.246  0.247
    2  0.000  0.000  0.246  0.247
    3  0.000  0.000  0.246  0.247
    4  0.000  0.000  0.246  0.247
tot    0.000  0.001  0.985  0.987
 
band    13 # energy  -10.07239416 # occ.  2.00000000
 
ion      s      p      d    tot
    1  0.000  0.000  0.247  0.247
    2  0.000  0.000  0.247  0.247
    3  0.000  0.000  0.247  0.247
    4  0.000  0.000  0.247  0.247
tot    0.000  0.001  0.988  0.990
 
band    14 # energy  -10.03923634 # occ.  2.00000000
 
ion      s      p      d    tot
    1  0.000  0.000  0.248  0.248
    2  0.000  0.000  0.248  0.248
    3  0.000  0.000  0.248  0.248
    4  0.000  0.000  0.248  0.248
tot    0.000  0.001  0.991  0.992
 
band    15 # energy  -10.01678626 # occ.  2.00000000
 
ion      s      p      d    tot
    1  0.000  0.000  0.248  0.248
    2  0.000  0.000  0.248  0.248
    3  0.000  0.000  0.248  0.248
    4  0.000  0.000  0.248  0.248
tot    0.000  0.001  0.992  0.993
 
band    16 # energy   -9.96602967 # occ.  2.00000000
 
ion      s      p      d    tot
    1  0.000  0.000  0.248  0.248
    2  0.000  0.000  0.248  0.248
    3  0.000  0.000  0.248  0.248
    4  0.000  0.000  0.248  0.248
tot    0.001  0.000  0.993  0.994
 
band    17 # energy   -9.93182975 # occ.  2.00000000
 
ion      s      p      d    tot
    1  0.000  0.000  0.249  0.249
    2  0.000  0.000  0.249  0.249
    3  0.000  0.000  0.249  0.249
    4  0.000  0.000  0.249  0.249
tot    0.000  0.000  0.996  0.996
 
band    18 # energy   -9.91311677 # occ.  2.00000000
 
ion      s      p      d    tot
    1  0.000  0.000  0.249  0.249
    2  0.000  0.000  0.249  0.249
    3  0.000  0.000  0.249  0.249
    4  0.000  0.000  0.249  0.249
tot    0.000  0.000  0.996  0.996
 
band    19 # energy   -9.90503709 # occ.  2.00000000
 
ion      s      p      d    tot
    1  0.000  0.000  0.249  0.249
    2  0.000  0.000  0.249  0.249
    3  0.000  0.000  0.249  0.249
    4  0.000  0.000  0.249  0.249
tot    0.000  0.000  0.996  0.996
 
band    20 # energy   -9.81164493 # occ.  2.00000000
 
ion      s      p      d    tot
    1  0.000  0.000  0.249  0.249
    2  0.000  0.000  0.249  0.249
    3  0.000  0.000  0.249  0.249
    4  0.000  0.000  0.249  0.249
tot    0.000  0.000  0.996  0.996
 
band    21 # energy   -5.93228735 # occ.  2.00000000
 
ion      s      p      d    tot
    1  0.133  0.001  0.000  0.134
    2  0.133  0.001  0.000  0.134
    3  0.133  0.001  0.000  0.134
    4  0.133  0.001  0.000  0.134
tot    0.531  0.005  0.001  0.537
 
band    22 # energy    0.54245055 # occ.  2.00000000
 
ion      s      p      d    tot
    1  0.143  0.027  0.007  0.176
    2  0.143  0.027  0.007  0.176
    3  0.143  0.027  0.007  0.176
    4  0.143  0.027  0.007  0.176
tot    0.570  0.106  0.026  0.703
 
band    23 # energy    1.27146866 # occ.  2.00000000
 
ion      s      p      d    tot
    1  0.075  0.067  0.005  0.147
    2  0.075  0.067  0.005  0.147
    3  0.075  0.067  0.005  0.147
    4  0.075  0.067  0.005  0.147
tot    0.302  0.267  0.021  0.589
 
band    24 # energy    1.39942465 # occ.  2.00000000
 
ion      s      p      d    tot
    1  0.096  0.053  0.009  0.157
    2  0.096  0.053  0.009  0.157
    3  0.096  0.053  0.009  0.157
    4  0.096  0.053  0.009  0.157
tot    0.382  0.212  0.034  0.629
 
band    25 # energy    3.73914108 # occ.  2.00000000
 
ion      s      p      d    tot
    1  0.010  0.113  0.008  0.130
    2  0.010  0.113  0.008  0.130
    3  0.010  0.113  0.008  0.130
    4  0.010  0.113  0.008  0.130
tot    0.040  0.451  0.030  0.522
 
band    26 # energy    4.47715575 # occ.  1.99955584
 
ion      s      p      d    tot
    1  0.059  0.081  0.012  0.152
    2  0.059  0.081  0.012  0.152
    3  0.059  0.081  0.012  0.152
    4  0.059  0.081  0.012  0.152
tot    0.236  0.323  0.049  0.608
 
band    27 # energy    4.59325546 # occ.  1.93857929
 
ion      s      p      d    tot
    1  0.006  0.097  0.016  0.118
    2  0.006  0.097  0.016  0.118
    3  0.006  0.097  0.016  0.118
    4  0.006  0.097  0.016  0.118
tot    0.023  0.388  0.063  0.474
 
band    28 # energy    6.24238913 # occ.  0.00000000
 
ion      s      p      d    tot
    1  0.072  0.061  0.017  0.150
    2  0.072  0.061  0.017  0.150
    3  0.072  0.061  0.017  0.150
    4  0.072  0.061  0.017  0.150
tot    0.288  0.244  0.069  0.601
 
band    29 # energy    7.21758772 # occ.  0.00000000
 
ion      s      p      d    tot
    1  0.001  0.106  0.023  0.130
    2  0.001  0.106  0.023  0.130
    3  0.001  0.106  0.023  0.130
    4  0.001  0.106  0.023  0.130
tot    0.004  0.424  0.090  0.519
 
band    30 # energy    9.04358881 # occ.  0.00000000
 
ion      s      p      d    tot
    1  0.040  0.109  0.015  0.163
    2  0.040  0.109  0.015  0.163
    3  0.040  0.109  0.015  0.163
    4  0.040  0.109  0.015  0.163
tot    0.158  0.436  0.058  0.652
 
band    31 # energy    9.08142037 # occ.  0.00000000
 
ion      s      p      d    tot
    1  0.021  0.103  0.023  0.146
    2  0.021  0.103  0.023  0.146
    3  0.021  0.103  0.023  0.146
    4  0.021  0.103  0.023  0.146
tot    0.083  0.411  0.091  0.585
 
band    32 # energy   10.98182861 # occ.  0.00000000
 
ion      s      p      d    tot
    1  0.002  0.120  0.022  0.145
    2  0.002  0.120  0.022  0.145
    3  0.002  0.120  0.022  0.145
    4  0.002  0.120  0.022  0.145
tot    0.010  0.480  0.090  0.579
 

 k-point     3 :    0.22222222-0.00000000 0.00000000     weight = 0.00705467

band     1 # energy  -10.33396652 # occ.  2.00000000
 
ion      s      p      d    tot
    1  0.000  0.000  0.245  0.245
    2  0.000  0.000  0.245  0.245
    3  0.000  0.000  0.245  0.245
    4  0.000  0.000  0.245  0.245
tot    0.001  0.000  0.980  0.981
 
band     2 # energy  -10.31740308 # occ.  2.00000000
 
ion      s      p      d    tot
    1  0.000  0.000  0.246  0.247
    2  0.000  0.000  0.246  0.247
    3  0.000  0.000  0.246  0.247
    4  0.000  0.000  0.246  0.247
tot    0.001  0.001  0.985  0.987
 
band     3 # energy  -10.31383771 # occ.  2.00000000
 
ion      s      p      d    tot
    1  0.000  0.000  0.245  0.246
    2  0.000  0.000  0.245  0.246
    3  0.000  0.000  0.245  0.246
    4  0.000  0.000  0.245  0.246
tot    0.000  0.001  0.982  0.983
 
band     4 # energy  -10.30164635 # occ.  2.00000000
 
ion      s      p      d    tot
    1  0.000  0.000  0.246  0.247
    2  0.000  0.000  0.246  0.247
    3  0.000  0.000  0.246  0.247
    4  0.000  0.000  0.246  0.247
tot    0.000  0.001  0.985  0.987
 
band     5 # energy  -10.24730511 # occ.  2.00000000
 
ion      s      p      d    tot
    1  0.000  0.000  0.246  0.246
    2  0.000  0.000  0.246  0.246
    3  0.000  0.000  0.246  0.246
    4  0.000  0.000  0.246  0.246
tot    0.001  0.001  0.982  0.984
 
band     6 # energy  -10.21873501 # occ.  2.00000000
 
ion      s      p      d    tot
    1  0.000  0.000  0.246  0.246
    2  0.000  0.000  0.246  0.246
    3  0.000  0.000  0.246  0.246
    4  0.000  0.000  0.246  0.246
tot    0.001  0.001  0.984  0.985
 
band     7 # energy  -10.21034338 # occ.  2.00000000
 
ion      s      p      d    tot
    1  0.000  0.000  0.246  0.246
    2  0.000  0.000  0.246  0.246
    3  0.000  0.000  0.246  0.246
    4  0.000  0.000  0.246  0.246
tot    0.001  0.000  0.984  0.986
 
band     8 # energy  -10.18495999 # occ.  2.00000000
 
ion      s      p      d    tot
    1  0.000  0.000  0.246  0.246
    2  0.000  0.000  0.246  0.246
    3  0.000  0.000  0.246  0.246
    4  0.000  0.000  0.246  0.246
tot    0.001  0.001  0.983  0.985
 
band     9 # energy  -10.15169556 # occ.  2.00000000
 
ion      s      p      d    tot
    1  0.000  0.000  0.247  0.247
    2  0.000  0.000  0.247  0.247
    3  0.000  0.000  0.247  0.247
    4  0.000  0.000  0.247  0.247
tot    0.000  0.001  0.986  0.987
 
band    10 # energy  -10.12419421 # occ.  2.00000000
 
ion      s      p      d    tot
    1  0.000  0.000  0.247  0.247
    2  0.000  0.000  0.247  0.247
    3  0.000  0.000  0.247  0.247
    4  0.000  0.000  0.247  0.247
tot    0.000  0.001  0.987  0.988
 
band    11 # energy  -10.08133236 # occ.  2.00000000
 
ion      s      p      d    tot
    1  0.000  0.000  0.247  0.248
    2  0.000  0.000  0.247  0.248
    3  0.000  0.000  0.247  0.248
    4  0.000  0.000  0.247  0.248
tot    0.001  0.001  0.989  0.991
 
band    12 # energy  -10.05659204 # occ.  2.00000000
 
ion      s      p      d    tot
    1  0.000  0.000  0.247  0.248
    2  0.000  0.000  0.247  0.248
    3  0.000  0.000  0.247  0.248
    4  0.000  0.000  0.247  0.248
tot    0.001  0.001  0.989  0.991
 
band    13 # energy  -10.04192504 # occ.  2.00000000
 
ion      s      p      d    tot
    1  0.000  0.000  0.247  0.247
    2  0.000  0.000  0.247  0.247
    3  0.000  0.000  0.247  0.247
    4  0.000  0.000  0.247  0.247
tot    0.000  0.001  0.987  0.989
 
band    14 # energy  -10.01715180 # occ.  2.00000000
 
ion      s      p      d    tot
    1  0.000  0.000  0.247  0.248
    2  0.000  0.000  0.247  0.248
    3  0.000  0.000  0.247  0.248
    4  0.000  0.000  0.247  0.248
tot    0.000  0.001  0.990  0.991
 
band    15 # energy   -9.99530662 # occ.  2.00000000
 
ion      s      p      d    tot
    1  0.000  0.000  0.248  0.248
    2  0.000  0.000  0.248  0.248
    3  0.000  0.000  0.248  0.248
    4  0.000  0.000  0.248  0.248
tot    0.000  0.001  0.992  0.993
 
band    16 # energy   -9.95341985 # occ.  2.00000000
 
ion      s      p      d    tot
    1  0.000  0.000  0.249  0.249
    2  0.000  0.000  0.249  0.249
    3  0.000  0.000  0.249  0.249
    4  0.000  0.000  0.249  0.249
tot    0.000  0.000  0.994  0.995
 
band    17 # energy   -9.93510511 # occ.  2.00000000
 
ion      s      p      d    tot
    1  0.000  0.000  0.249  0.249
    2  0.000  0.000  0.249  0.249
    3  0.000  0.000  0.249  0.249
    4  0.000  0.000  0.249  0.249
tot    0.000  0.000  0.995  0.995
 
band    18 # energy   -9.92796957 # occ.  2.00000000
 
ion      s      p      d    tot
    1  0.000  0.000  0.249  0.249
    2  0.000  0.000  0.249  0.249
    3  0.000  0.000  0.249  0.249
    4  0.000  0.000  0.249  0.249
tot    0.000  0.000  0.995  0.995
 
band    19 # energy   -9.90527670 # occ.  2.00000000
 
ion      s      p      d    tot
    1  0.000  0.000  0.249  0.249
    2  0.000  0.000  0.249  0.249
    3  0.000  0.000  0.249  0.249
    4  0.000  0.000  0.249  0.249
tot    0.000  0.000  0.995  0.996
 
band    20 # energy   -9.81885150 # occ.  2.00000000
 
ion      s      p      d    tot
    1  0.000  0.000  0.249  0.249
    2  0.000  0.000  0.249  0.249
    3  0.000  0.000  0.249  0.249
    4  0.000  0.000  0.249  0.249
tot    0.000  0.000  0.996  0.996
 
band    21 # energy   -5.58153989 # occ.  2.00000000
 
ion      s      p      d    tot
    1  0.130  0.004  0.001  0.135
    2  0.130  0.004  0.001  0.135
    3  0.130  0.004  0.001  0.135
    4  0.130  0.004  0.001  0.135
tot    0.522  0.016  0.002  0.540
 
band    22 # energy   -0.51553505 # occ.  2.00000000
 
ion      s      p      d    tot
    1  0.114  0.035  0.006  0.156
    2  0.114  0.035  0.006  0.156
    3  0.114  0.035  0.006  0.156
    4  0.114  0.035  0.006  0.156
tot    0.457  0.141  0.025  0.622
 
band    23 # energy    1.03311573 # occ.  2.00000000
 
ion      s      p      d    tot
    1  0.125  0.038  0.007  0.170
    2  0.125  0.038  0.007  0.170
    3  0.125  0.038  0.007  0.170
    4  0.125  0.038  0.007  0.170
tot    0.499  0.153  0.028  0.679
 
band    24 # energy    1.41273498 # occ.  2.00000000
 
ion      s      p      d    tot
    1  0.086  0.061  0.006  0.153
    2  0.086  0.061  0.006  0.153
    3  0.086  0.061  0.006  0.153
    4  0.086  0.061  0.006  0.153
tot    0.345  0.243  0.025  0.613
 
band    25 # energy    3.29592250 # occ.  2.00000000
 
ion      s      p      d    tot
    1  0.009  0.108  0.008  0.125
    2  0.009  0.108  0.008  0.125
    3  0.009  0.108  0.008  0.125
    4  0.009  0.108  0.008  0.125
tot    0.036  0.432  0.030  0.498
 
band    26 # energy    3.87440141 # occ.  2.00000000
 
ion      s      p      d    tot
    1  0.003  0.097  0.013  0.113
    2  0.003  0.097  0.013  0.113
    3  0.003  0.097  0.013  0.113
    4  0.003  0.097  0.013  0.113
tot    0.013  0.389  0.051  0.452
 
band    27 # energy    6.06347088 # occ.  0.00000000
 
ion      s      p      d    tot
    1  0.056  0.091  0.014  0.161
    2  0.056  0.091  0.014  0.161
    3  0.056  0.091  0.014  0.161
    4  0.056  0.091  0.014  0.161
tot    0.225  0.362  0.057  0.644
 
band    28 # energy    7.07207162 # occ.  0.00000000
 
ion      s      p      d    tot
    1  0.088  0.076  0.011  0.175
    2  0.088  0.076  0.011  0.175
    3  0.088  0.076  0.011  0.175
    4  0.088  0.076  0.011  0.175
tot    0.350  0.302  0.046  0.698
 
band    29 # energy    7.67701657 # occ.  0.00000000
 
ion      s      p      d    tot
    1  0.027  0.100  0.020  0.146
    2  0.027  0.100  0.020  0.146
    3  0.027  0.100  0.020  0.146
    4  0.027  0.100  0.020  0.146
tot    0.107  0.399  0.079  0.585
 
band    30 # energy    8.00852340 # occ.  0.00000000
 
ion      s      p      d    tot
    1  0.005  0.089  0.028  0.121
    2  0.005  0.089  0.028  0.121
    3  0.005  0.089  0.028  0.121
    4  0.005  0.089  0.028  0.121
tot    0.019  0.354  0.112  0.485
 
band    31 # energy    9.19440516 # occ.  0.00000000
 
ion      s      p      d    tot
    1  0.007  0.107  0.030  0.143
    2  0.007  0.107  0.030  0.143
    3  0.007  0.107  0.030  0.143
    4  0.007  0.107  0.030  0.143
tot    0.027  0.428  0.118  0.573
 
band    32 # energy   10.25931136 # occ.  0.00000000
 
ion      s      p      d    tot
    1  0.005  0.114  0.022  0.141
    2  0.005  0.114  0.022  0.141
    3  0.005  0.114  0.022  0.141
    4  0.005  0.114  0.022  0.141
tot    0.018  0.458  0.086  0.562
 

 k-point     4 :    0.33333333-0.00000000 0.00000000     weight = 0.00705467

band     1 # energy  -10.33365825 # occ.  2.00000000
 
ion      s      p      d    tot
    1  0.000  0.000  0.246  0.246
    2  0.000  0.000  0.246  0.246
    3  0.000  0.000  0.246  0.246
    4  0.000  0.000  0.246  0.246
tot    0.001  0.001  0.982  0.983
 
band     2 # energy  -10.31797089 # occ.  2.00000000
 
ion      s      p      d    tot
    1  0.000  0.000  0.245  0.246
    2  0.000  0.000  0.245  0.246
    3  0.000  0.000  0.245  0.246
    4  0.000  0.000  0.245  0.246
tot    0.001  0.001  0.981  0.983
 
band     3 # energy  -10.31512861 # occ.  2.00000000
 
ion      s      p      d    tot
    1  0.000  0.000  0.246  0.247
    2  0.000  0.000  0.246  0.247
    3  0.000  0.000  0.246  0.247
    4  0.000  0.000  0.246  0.247
tot    0.000  0.001  0.985  0.986
 
band     4 # energy  -10.29216870 # occ.  2.00000000
 
ion      s      p      d    tot
    1  0.000  0.000  0.246  0.246
    2  0.000  0.000  0.246  0.246
    3  0.000  0.000  0.246  0.246
    4  0.000  0.000  0.246  0.246
tot    0.000  0.001  0.983  0.984
 
band     5 # energy  -10.25360395 # occ.  2.00000000
 
ion      s      p      d    tot
    1  0.000  0.000  0.246  0.246
    2  0.000  0.000  0.246  0.246
    3  0.000  0.000  0.246  0.246
    4  0.000  0.000  0.246  0.246
tot    0.001  0.000  0.983  0.984
 
band     6 # energy  -10.24898571 # occ.  2.00000000
 
ion      s      p      d    tot
    1  0.000  0.000  0.246  0.246
    2  0.000  0.000  0.246  0.246
    3  0.000  0.000  0.246  0.246
    4  0.000  0.000  0.246  0.246
tot    0.002  0.000  0.982  0.984
 
band     7 # energy  -10.18599382 # occ.  2.00000000
 
ion      s      p      d    tot
    1  0.000  0.000  0.246  0.247
    2  0.000  0.000  0.246  0.247
    3  0.000  0.000  0.246  0.247
    4  0.000  0.000  0.246  0.247
tot    0.001  0.001  0.984  0.986
 
band     8 # energy  -10.18525694 # occ.  2.00000000
 
ion      s      p      d    tot
    1  0.000  0.000  0.246  0.246
    2  0.000  0.000  0.246  0.246
    3  0.000  0.000  0.246  0.246
    4  0.000  0.000  0.246  0.246
tot    0.000  0.001  0.984  0.985
 
band     9 # energy  -10.18266444 # occ.  2.00000000
 
ion      s      p      d    tot
    1  0.000  0.000  0.246  0.246
    2  0.000  0.000  0.246  0.246
    3  0.000  0.000  0.246  0.246
    4  0.000  0.000  0.246  0.246
tot    0.001  0.001  0.984  0.986
 
band    10 # energy  -10.12465387 # occ.  2.00000000
 
ion      s      p      d    tot
    1  0.000  0.000  0.247  0.247
    2  0.000  0.000  0.247  0.247
    3  0.000  0.000  0.247  0.247
    4  0.000  0.000  0.247  0.247
tot    0.001  0.000  0.989  0.989
 
band    11 # energy  -10.09735646 # occ.  2.00000000
 
ion      s      p      d    tot
    1  0.000  0.000  0.247  0.248
    2  0.000  0.000  0.247  0.248
    3  0.000  0.000  0.247  0.248
    4  0.000  0.000  0.247  0.248
tot    0.001  0.001  0.989  0.990
 
band    12 # energy  -10.04192559 # occ.  2.00000000
 
ion      s      p      d    tot
    1  0.000  0.000  0.247  0.248
    2  0.000  0.000  0.247  0.248
    3  0.000  0.000  0.247  0.248
    4  0.000  0.000  0.247  0.248
tot    0.001  0.001  0.989  0.991
 
band    13 # energy  -10.02694908 # occ.  2.00000000
 
ion      s      p      d    tot
    1  0.000  0.000  0.248  0.248
    2  0.000  0.000  0.248  0.248
    3  0.000  0.000  0.248  0.248
    4  0.000  0.000  0.248  0.248
tot    0.000  0.001  0.990  0.991
 
band    14 # energy   -9.97888800 # occ.  2.00000000
 
ion      s      p      d    tot
    1  0.000  0.000  0.248  0.248
    2  0.000  0.000  0.248  0.248
    3  0.000  0.000  0.248  0.248
    4  0.000  0.000  0.248  0.248
tot    0.000  0.001  0.991  0.992
 
band    15 # energy   -9.97204541 # occ.  2.00000000
 
ion      s      p      d    tot
    1  0.000  0.000  0.248  0.248
    2  0.000  0.000  0.248  0.248
    3  0.000  0.000  0.248  0.248
    4  0.000  0.000  0.248  0.248
tot    0.001  0.000  0.993  0.994
 
band    16 # energy   -9.96451255 # occ.  2.00000000
 
ion      s      p      d    tot
    1  0.000  0.000  0.248  0.248
    2  0.000  0.000  0.248  0.248
    3  0.000  0.000  0.248  0.248
    4  0.000  0.000  0.248  0.248
tot    0.001  0.000  0.993  0.994
 
band    17 # energy   -9.95495322 # occ.  2.00000000
 
ion      s      p      d    tot
    1  0.000  0.000  0.248  0.249
    2  0.000  0.000  0.248  0.249
    3  0.000  0.000  0.248  0.249
    4  0.000  0.000  0.248  0.249
tot    0.000  0.001  0.994  0.995
 
band    18 # energy   -9.92166221 # occ.  2.00000000
 
ion      s      p      d    tot
    1  0.000  0.000  0.248  0.249
    2  0.000  0.000  0.248  0.249
    3  0.000  0.000  0.248  0.249
    4  0.000  0.000  0.248  0.249
tot    0.000  0.000  0.993  0.994
 
band    19 # energy   -9.89679397 # occ.  2.00000000
 