Job started on p-sc-2012 at Sat Apr 20 16:34:18 EDT 2024
Start: Sat Apr 20 16:34:18 EDT 2024
 running on   32 total cores
 distrk:  each k-point on    8 cores,    4 groups
 distr:  one band on    1 cores,    8 groups
 vasp.6.3.1 04May22 (build Jun 07 2022 20:23:04) complex                        
  
 POSCAR found type information on POSCAR Ga
 POSCAR found :  1 types and       4 ions
 Reading from existing POTCAR
 scaLAPACK will be used
 -----------------------------------------------------------------------------
|                                                                             |
|           W    W    AA    RRRRR   N    N  II  N    N   GGGG   !!!           |
|           W    W   A  A   R    R  NN   N  II  NN   N  G    G  !!!           |
|           W    W  A    A  R    R  N N  N  II  N N  N  G       !!!           |
|           W WW W  AAAAAA  RRRRR   N  N N  II  N  N N  G  GGG   !            |
|           WW  WW  A    A  R   R   N   NN  II  N   NN  G    G                |
|           W    W  A    A  R    R  N    N  II  N    N   GGGG   !!!           |
|                                                                             |
|     For optimal performance we recommend to set                             |
|       NCORE = 2 up to number-of-cores-per-socket                            |
|     NCORE specifies how many cores store one orbital (NPAR=cpu/NCORE).      |
|     This setting can greatly improve the performance of VASP for DFT.       |
|     The default, NCORE=1 might be grossly inefficient on modern             |
|     multi-core architectures or massively parallel machines. Do your        |
|     own testing! More info at https://www.vasp.at/wiki/index.php/NCORE      |
|     Unfortunately you need to use the default for GW and RPA                |
|     calculations (for HF NCORE is supported but not extensively tested      |
|     yet).                                                                   |
|                                                                             |
 -----------------------------------------------------------------------------

 Reading from existing POTCAR
 LDA part: xc-table for Pade appr. of Perdew
 POSCAR found type information on POSCAR Ga
 POSCAR found :  1 types and       4 ions
 POSCAR, INCAR and KPOINTS ok, starting setup
 FFT: planning ... GRIDC
 FFT: planning ... GRID_SOFT
 FFT: planning ... GRID
 WAVECAR not read
 entering main loop
       N       E                     dE             d eps       ncg     rms          rms(c)
DAV:   1     0.326197133527E+03    0.32620E+03   -0.22542E+04  6536   0.267E+03
DAV:   2     0.252068924445E+02   -0.30099E+03   -0.29531E+03  6624   0.501E+02
DAV:   3    -0.107182831101E+02   -0.35925E+02   -0.35614E+02  7456   0.139E+02
DAV:   4    -0.116476482038E+02   -0.92937E+00   -0.92752E+00  6976   0.269E+01
DAV:   5    -0.116684992804E+02   -0.20851E-01   -0.20849E-01  7944   0.399E+00    0.256E+00
DAV:   6    -0.115875901583E+02    0.80909E-01   -0.21348E-01  7664   0.648E+00    0.140E+00
DAV:   7    -0.115722113543E+02    0.15379E-01   -0.59916E-02  9192   0.275E+00    0.317E-01
DAV:   8    -0.115710318910E+02    0.11795E-02   -0.13837E-02  7136   0.134E+00    0.470E-02
DAV:   9    -0.115711909232E+02   -0.15903E-03   -0.10079E-03  7408   0.339E-01    0.259E-02
DAV:  10    -0.115712015265E+02   -0.10603E-04   -0.20146E-04  7512   0.157E-01    0.508E-03
DAV:  11    -0.115712026006E+02   -0.10741E-05   -0.33653E-05  7456   0.696E-02    0.428E-03
DAV:  12    -0.115712023342E+02    0.26640E-06   -0.80558E-06  7664   0.326E-02    0.536E-04
DAV:  13    -0.115712024445E+02   -0.11027E-06   -0.90024E-07  8216   0.754E-03    0.449E-04
DAV:  14    -0.115712023674E+02    0.77041E-07   -0.46404E-08  4488   0.179E-03
   1 F= -.11571202E+02 E0= -.11569289E+02  d E =-.115712E+02
 curvature:   0.00 expect dE= 0.000E+00 dE for cont linesearch  0.000E+00
 trial: gam= 0.00000 g(F)=  0.251E-03 g(S)=  0.753E-01 ort = 0.000E+00 (trialstep = 0.100E+01)
 search vector abs. value=  0.755E-01
 bond charge predicted
       N       E                     dE             d eps       ncg     rms          rms(c)
DAV:   1    -0.130420590216E+02   -0.14709E+01   -0.20455E+01  6832   0.625E+01    0.696E+00
DAV:   2    -0.119274382615E+02    0.11146E+01   -0.21549E+00  7888   0.189E+01    0.323E+00
DAV:   3    -0.116387163946E+02    0.28872E+00   -0.47133E-01  7888   0.875E+00    0.557E-01
DAV:   4    -0.116085534211E+02    0.30163E-01   -0.80644E-02  7616   0.353E+00    0.106E-01
DAV:   5    -0.116084170973E+02    0.13632E-03   -0.67020E-03  7256   0.920E-01    0.223E-02
DAV:   6    -0.116084885323E+02   -0.71435E-04   -0.58523E-04  8968   0.177E-01    0.189E-02
DAV:   7    -0.116084793844E+02    0.91479E-05   -0.32077E-05  8192   0.514E-02    0.370E-03
DAV:   8    -0.116084792522E+02    0.13222E-06   -0.46604E-06  8296   0.183E-02    0.959E-04
DAV:   9    -0.116084792496E+02    0.25884E-08   -0.28321E-07  5872   0.453E-03
   2 F= -.11608479E+02 E0= -.11606418E+02  d E =-.372769E-01
 trial-energy change:   -0.037277  1 .order   -0.039134   -0.075509   -0.002758
 step:   1.0451(harm=  1.0379)  dis= 0.00150  next Energy=   -11.608541 (dE=-0.373E-01)
 bond charge predicted
       N       E                     dE             d eps       ncg     rms          rms(c)
DAV:   1    -0.116114527082E+02   -0.29735E-02   -0.39663E-02  7016   0.259E+00    0.318E-01
DAV:   2    -0.116091461327E+02    0.23066E-02   -0.49470E-03  7848   0.932E-01    0.143E-01
DAV:   3    -0.116085903544E+02    0.55578E-03   -0.74243E-04  7944   0.344E-01    0.301E-02
DAV:   4    -0.116085245321E+02    0.65822E-04   -0.12336E-04  7600   0.129E-01    0.220E-03
DAV:   5    -0.116085251306E+02   -0.59848E-06   -0.63739E-06  7224   0.257E-02    0.105E-03
DAV:   6    -0.116085254459E+02   -0.31536E-06   -0.57449E-07  7384   0.668E-03    0.831E-04
DAV:   7    -0.116085254614E+02   -0.15529E-07   -0.49109E-08  3928   0.233E-03
   3 F= -.11608525E+02 E0= -.11606452E+02  d E =-.373231E-01
 curvature:  -0.50 expect dE=-0.123E-02 dE for cont linesearch -0.116E-05
 trial: gam= 0.03809 g(F)=  0.926E-04 g(S)=  0.236E-02 ort =-0.419E-03 (trialstep = 0.101E+01)
 search vector abs. value=  0.253E-02
 bond charge predicted
       N       E                     dE             d eps       ncg     rms          rms(c)
DAV:   1    -0.116224990343E+02   -0.13974E-01   -0.23911E-01  7672   0.342E+00    0.688E-01
DAV:   2    -0.116150312099E+02    0.74678E-02   -0.13481E-02  6880   0.195E+00    0.417E-01
DAV:   3    -0.116105294183E+02    0.45018E-02   -0.57398E-03  7896   0.120E+00    0.260E-02
DAV:   4    -0.116107886213E+02   -0.25920E-03   -0.27412E-03  6616   0.531E-01    0.243E-02
DAV:   5    -0.116107853635E+02    0.32578E-05   -0.95932E-05  9952   0.892E-02    0.138E-02
DAV:   6    -0.116107856154E+02   -0.25183E-06   -0.48376E-06  7928   0.513E-02    0.200E-03
DAV:   7    -0.116107855009E+02    0.11442E-06   -0.13891E-06  7720   0.123E-02    0.648E-04
DAV:   8    -0.116107854824E+02    0.18530E-07   -0.10381E-07  4192   0.516E-03
   4 F= -.11610785E+02 E0= -.11608829E+02  d E =-.226002E-02
 ZBRENT: can't locate minimum, use default step
 trial-energy change:   -0.002260  1 .order   -0.002256   -0.002463   -0.002050
 step:   4.0361(harm=  6.0131)  dis= 0.00369  next Energy=   -11.615865 (dE=-0.734E-02)
 bond charge predicted
       N       E                     dE             d eps       ncg     rms          rms(c)
DAV:   1    -0.117213932526E+02   -0.11061E+00   -0.21651E+00  7672   0.103E+01    0.207E+00
DAV:   2    -0.116529905113E+02    0.68403E-01   -0.12101E-01  6880   0.546E+00    0.125E+00
DAV:   3    -0.116123454507E+02    0.40645E-01   -0.54878E-02  8344   0.349E+00    0.821E-02
DAV:   4    -0.116144597778E+02   -0.21143E-02   -0.22669E-02  6696   0.151E+00    0.723E-02
DAV:   5    -0.116144458212E+02    0.13957E-04   -0.84176E-04  9440   0.261E-01    0.416E-02
DAV:   6    -0.116144351563E+02    0.10665E-04   -0.56724E-05  7920   0.170E-01    0.558E-03
DAV:   7    -0.116144358142E+02   -0.65789E-06   -0.28069E-05  7984   0.589E-02    0.242E-03
DAV:   8    -0.116144357461E+02    0.68132E-07   -0.24978E-06  7064   0.202E-02    0.563E-04
DAV:   9    -0.116144357778E+02   -0.31782E-07   -0.24825E-07  5528   0.545E-03
   5 F= -.11614436E+02 E0= -.11612860E+02  d E =-.591032E-02
 curvature:  -2.63 expect dE=-0.355E-03 dE for cont linesearch -0.420E-04
 ZBRENT: extrapolating
 opt :   4.3686  next Energy=   -11.614469 (dE=-0.594E-02)
 bond charge predicted
       N       E                     dE             d eps       ncg     rms          rms(c)
DAV:   1    -0.116157573075E+02   -0.13216E-02   -0.26191E-02  7648   0.114E+00    0.229E-01
DAV:   2    -0.116149264804E+02    0.83083E-03   -0.15897E-03  7008   0.675E-01    0.138E-01
DAV:   3    -0.116144267695E+02    0.49971E-03   -0.62934E-04  7944   0.394E-01    0.864E-03
DAV:   4    -0.116144556303E+02   -0.28861E-04   -0.30029E-04  6688   0.174E-01    0.825E-03
DAV:   5    -0.116144551358E+02    0.49451E-06   -0.10862E-05  9920   0.311E-02    0.472E-03
DAV:   6    -0.116144551612E+02   -0.25423E-07   -0.57506E-07  5464   0.179E-02
   6 F= -.11614455E+02 E0= -.11612890E+02  d E =-.592970E-02
 curvature:  -2.10 expect dE=-0.169E-03 dE for cont linesearch -0.326E-05
 ZBRENT: bracketing found
 ZBRENT: interpolating
 opt :   4.2895  next Energy=   -11.614458 (dE=-0.593E-02)
 bond charge predicted
       N       E                     dE             d eps       ncg     rms          rms(c)
DAV:   1    -0.116145336186E+02   -0.78483E-04   -0.14916E-03  7656   0.274E-01    0.545E-02
DAV:   2    -0.116144863980E+02    0.47221E-04   -0.92210E-05  6960   0.163E-01    0.329E-02
DAV:   3    -0.116144576562E+02    0.28742E-04   -0.35427E-05  7768   0.935E-02    0.204E-03
DAV:   4    -0.116144592795E+02   -0.16233E-05   -0.16914E-05  6752   0.409E-02    0.196E-03
DAV:   5    -0.116144592116E+02    0.67912E-07   -0.56816E-07  7416   0.732E-03
   7 F= -.11614459E+02 E0= -.11612893E+02  d E =-.593375E-02
 curvature:  -1.60 expect dE=-0.250E-03 dE for cont linesearch -0.132E-06
 trial: gam= 0.11438 g(F)=  0.496E-04 g(S)=  0.107E-03 ort =-0.145E-04 (trialstep = 0.167E+01)
 search vector abs. value=  0.186E-03
 bond charge predicted
       N       E                     dE             d eps       ncg     rms          rms(c)
DAV:   1    -0.116204043195E+02   -0.59450E-02   -0.10329E-01  7800   0.378E+00    0.473E-01
DAV:   2    -0.116158644095E+02    0.45399E-02   -0.15144E-02  7968   0.161E+00    0.215E-01
DAV:   3    -0.116146540761E+02    0.12103E-02   -0.15894E-03  8048   0.470E-01    0.529E-02
DAV:   4    -0.116145277867E+02    0.12629E-03   -0.44279E-04  6936   0.207E-01    0.751E-03
DAV:   5    -0.116145313152E+02   -0.35284E-05   -0.52504E-05  7688   0.808E-02    0.343E-03
DAV:   6    -0.116145306262E+02    0.68891E-06   -0.81158E-06  7752   0.324E-02    0.859E-04
DAV:   7    -0.116145305989E+02    0.27352E-07   -0.79009E-07  8344   0.679E-03
   8 F= -.11614531E+02 E0= -.11612963E+02  d E =-.713873E-04
 trial-energy change:   -0.000071  1 .order   -0.000025   -0.000258    0.000208
 step:   1.1373(harm=  0.9213)  dis= 0.00075  next Energy=   -11.614562 (dE=-0.103E-03)
 bond charge predicted
       N       E                     dE             d eps       ncg     rms          rms(c)
DAV:   1    -0.116151337462E+02   -0.60312E-03   -0.10259E-02  7792   0.118E+00    0.150E-01
DAV:   2    -0.116146777593E+02    0.45599E-03   -0.15215E-03  7936   0.512E-01    0.680E-02
DAV:   3    -0.116145580966E+02    0.11966E-03   -0.15592E-04  8064   0.147E-01    0.169E-02
DAV:   4    -0.116145465105E+02    0.11586E-04   -0.43515E-05  6920   0.644E-02    0.231E-03
DAV:   5    -0.116145467602E+02   -0.24967E-06   -0.51093E-06  7696   0.252E-02    0.107E-03
DAV:   6    -0.116145467140E+02    0.46169E-07   -0.78165E-07  6864   0.101E-02
   9 F= -.11614547E+02 E0= -.11612981E+02  d E =-.875024E-04
 curvature:  -0.51 expect dE=-0.990E-05 dE for cont linesearch -0.326E-05
 ZBRENT: interpolating
 opt :   1.2516  next Energy=   -11.614549 (dE=-0.895E-04)
 bond charge predicted
       N       E                     dE             d eps       ncg     rms          rms(c)
DAV:   1    -0.116145745323E+02   -0.27772E-04   -0.48381E-04  7768   0.258E-01    0.326E-02
DAV:   2    -0.116145529196E+02    0.21613E-04   -0.71852E-05  7944   0.111E-01    0.148E-02
DAV:   3    -0.116145470327E+02    0.58869E-05   -0.74646E-06  8040   0.323E-02    0.367E-03
DAV:   4    -0.116145462402E+02    0.79252E-06   -0.20338E-06  6912   0.140E-02    0.502E-04
DAV:   5    -0.116145462684E+02   -0.28235E-07   -0.21257E-07  3888   0.538E-03
  10 F= -.11614546E+02 E0= -.11612981E+02  d E =-.870568E-04
 curvature:  -0.31 expect dE=-0.128E-04 dE for cont linesearch -0.350E-05
 ZBRENT: interpolating
 opt :   1.1863  next Energy=   -11.614548 (dE=-0.884E-04)
 bond charge predicted
       N       E                     dE             d eps       ncg     rms          rms(c)
DAV:   1    -0.116145555894E+02   -0.93492E-05   -0.15450E-04  7784   0.145E-01    0.185E-02
DAV:   2    -0.116145485267E+02    0.70627E-05   -0.23351E-05  7976   0.635E-02    0.838E-03
DAV:   3    -0.116145468088E+02    0.17179E-05   -0.23761E-06  8048   0.182E-02    0.209E-03
DAV:   4    -0.116145467290E+02    0.79781E-07   -0.64496E-07  6568   0.788E-03
  11 F= -.11614547E+02 E0= -.11612981E+02  d E =-.875174E-04
 curvature:  -0.07 expect dE=-0.149E-05 dE for cont linesearch -0.413E-07
 ZBRENT: interpolating
 opt :   1.1752  next Energy=   -11.614547 (dE=-0.876E-04)
 bond charge predicted
       N       E                     dE             d eps       ncg     rms          rms(c)
DAV:   1    -0.116145469664E+02   -0.15761E-06   -0.41035E-06  7864   0.231E-02    0.310E-03
DAV:   2    -0.116145467747E+02    0.19167E-06   -0.63224E-07  6016   0.104E-02    0.143E-03
DAV:   3    -0.116145467364E+02    0.38388E-07   -0.60820E-08  3360   0.294E-03
  12 F= -.11614547E+02 E0= -.11612981E+02  d E =-.875247E-04
 curvature:  -0.10 expect dE=-0.160E-05 dE for cont linesearch -0.143E-06
 ZBRENT: interpolating
 opt :   1.1820  next Energy=   -11.614547 (dE=-0.875E-04)
 bond charge predicted
       N       E                     dE             d eps       ncg     rms          rms(c)
DAV:   1    -0.116145468486E+02   -0.73858E-07   -0.16069E-06  7704   0.146E-02    0.192E-03
DAV:   2    -0.116145467811E+02    0.67542E-07   -0.25439E-07  3368   0.687E-03
  13 F= -.11614547E+02 E0= -.11612981E+02  d E =-.875694E-04
 curvature:  -0.02 expect dE=-0.218E-06 dE for cont linesearch -0.464E-10
 trial: gam= 0.04637 g(F)=  0.495E-05 g(S)=  0.897E-05 ort = 0.744E-06 (trialstep = 0.157E+01)
 search vector abs. value=  0.144E-04
 bond charge predicted
       N       E                     dE             d eps       ncg     rms          rms(c)
DAV:   1    -0.116146686603E+02   -0.12181E-03   -0.45425E-03  7888   0.484E-01    0.672E-02
DAV:   2    -0.116145968484E+02    0.71812E-04   -0.29822E-04  7672   0.245E-01    0.378E-02
DAV:   3    -0.116145614169E+02    0.35431E-04   -0.87315E-05  9528   0.903E-02    0.614E-03
DAV:   4    -0.116145631117E+02   -0.16947E-05   -0.23618E-05  6856   0.448E-02    0.309E-03
DAV:   5    -0.116145630026E+02    0.10903E-06   -0.13727E-06  7456   0.102E-02    0.128E-03
DAV:   6    -0.116145629860E+02    0.16585E-07   -0.21698E-07  5144   0.547E-03
  14 F= -.11614563E+02 E0= -.11613001E+02  d E =-.162050E-04
 trial-energy change:   -0.000016  1 .order   -0.000016   -0.000022   -0.000009
 step:   2.3238(harm=  2.6913)  dis= 0.00063  next Energy=   -11.614565 (dE=-0.185E-04)
 reached required accuracy - stopping structural energy minimisation
End: Sat Apr 20 16:34:59 EDT 2024
