<?xml version="1.0" encoding="ISO-8859-1"?>
<modeling>
 <generator>
  <i name="program" type="string">vasp </i>
  <i name="version" type="string">6.3.1  </i>
  <i name="subversion" type="string">04May22 (build Jun 07 2022 20:23:04) complex                          parallel </i>
  <i name="platform" type="string">LinuxIFC </i>
  <i name="date" type="string">2024 04 20 </i>
  <i name="time" type="string">16:34:20 </i>
 </generator>
 <incar>
  <i type="string" name="PREC">Normal</i>
  <i type="string" name="ALGO">Normal</i>
  <i type="int" name="NELM">   100</i>
  <i type="int" name="IBRION">     2</i>
  <i name="EDIFF">      0.00000010</i>
  <i name="EDIFFG">     -0.00500000</i>
  <i type="int" name="NSW">    20</i>
  <i type="int" name="ISIF">     3</i>
  <i name="ENCUT">    400.00000000</i>
  <i type="logical" name="LREAL"> F  </i>
  <i type="int" name="ISMEAR">     0</i>
  <i name="SIGMA">      0.10000000</i>
  <i type="logical" name="LWAVE"> F  </i>
  <i type="logical" name="LCHARG"> F  </i>
  <i type="int" name="LORBIT">    10</i>
  <i type="logical" name="LASPH"> T  </i>
 </incar>
 <primitive_cell>
  <structure name="primitive_cell" >
   <crystal>
    <varray name="basis" >
     <v>       2.21602333      -3.79899184       0.00000000 </v>
     <v>       2.21602333       3.79899184       0.00000000 </v>
     <v>       0.00000000       0.00000000       4.55550353 </v>
    </varray>
    <i name="volume">     76.70242104 </i>
    <varray name="rec_basis" >
     <v>       0.22562939      -0.13161387       0.00000000 </v>
     <v>       0.22562939       0.13161387       0.00000000 </v>
     <v>       0.00000000       0.00000000       0.21951470 </v>
    </varray>
   </crystal>
   <varray name="positions" >
    <v>       0.65569572       0.34430428       0.41540139 </v>
    <v>       0.84430428       0.15569572       0.91540139 </v>
    <v>       0.34430428       0.65569572       0.58459861 </v>
    <v>       0.15569572       0.84430428       0.08459861 </v>
   </varray>
  </structure>
  <varray name="primitive_index" >
   <v type="int" >        1 </v>
   <v type="int" >        2 </v>
   <v type="int" >        3 </v>
   <v type="int" >        4 </v>
  </varray>
 </primitive_cell>
 <kpoints>
  <generation param="Gamma">
   <v type="int" name="divisions">       9        9        7 </v>
   <v name="usershift">      0.00000000       0.00000000       0.00000000 </v>
   <v name="genvec1">      0.11111111       0.00000000       0.00000000 </v>
   <v name="genvec2">      0.00000000       0.11111111       0.00000000 </v>
   <v name="genvec3">      0.00000000       0.00000000       0.14285714 </v>
   <v name="shift">      0.00000000       0.00000000       0.00000000 </v>
  </generation>
  <varray name="kpointlist" >
   <v>       0.00000000       0.00000000       0.00000000 </v>
   <v>       0.11111111      -0.00000000       0.00000000 </v>
   <v>       0.22222222      -0.00000000       0.00000000 </v>
   <v>       0.33333333      -0.00000000       0.00000000 </v>
   <v>       0.44444444      -0.00000000       0.00000000 </v>
   <v>       0.11111111       0.11111111       0.00000000 </v>
   <v>       0.22222222       0.11111111       0.00000000 </v>
   <v>       0.33333333       0.11111111       0.00000000 </v>
   <v>       0.44444444       0.11111111       0.00000000 </v>
   <v>      -0.44444444       0.11111111       0.00000000 </v>
   <v>      -0.33333333       0.11111111       0.00000000 </v>
   <v>      -0.22222222       0.11111111       0.00000000 </v>
   <v>      -0.11111111       0.11111111       0.00000000 </v>
   <v>       0.22222222       0.22222222       0.00000000 </v>
   <v>       0.33333333       0.22222222       0.00000000 </v>
   <v>       0.44444444       0.22222222       0.00000000 </v>
   <v>      -0.44444444       0.22222222       0.00000000 </v>
   <v>      -0.33333333       0.22222222       0.00000000 </v>
   <v>      -0.22222222       0.22222222       0.00000000 </v>
   <v>       0.33333333       0.33333333       0.00000000 </v>
   <v>       0.44444444       0.33333333       0.00000000 </v>
   <v>      -0.44444444       0.33333333       0.00000000 </v>
   <v>      -0.33333333       0.33333333       0.00000000 </v>
   <v>       0.44444444       0.44444444       0.00000000 </v>
   <v>      -0.44444444       0.44444444       0.00000000 </v>
   <v>       0.00000000       0.00000000       0.14285714 </v>
   <v>       0.11111111      -0.00000000       0.14285714 </v>
   <v>       0.22222222      -0.00000000       0.14285714 </v>
   <v>       0.33333333      -0.00000000       0.14285714 </v>
   <v>       0.44444444      -0.00000000       0.14285714 </v>
   <v>       0.11111111       0.11111111       0.14285714 </v>
   <v>       0.22222222       0.11111111       0.14285714 </v>
   <v>       0.33333333       0.11111111       0.14285714 </v>
   <v>       0.44444444       0.11111111       0.14285714 </v>
   <v>      -0.44444444       0.11111111       0.14285714 </v>
   <v>      -0.33333333       0.11111111       0.14285714 </v>
   <v>      -0.22222222       0.11111111       0.14285714 </v>
   <v>      -0.11111111       0.11111111       0.14285714 </v>
   <v>       0.22222222       0.22222222       0.14285714 </v>
   <v>       0.33333333       0.22222222       0.14285714 </v>
   <v>       0.44444444       0.22222222       0.14285714 </v>
   <v>      -0.44444444       0.22222222       0.14285714 </v>
   <v>      -0.33333333       0.22222222       0.14285714 </v>
   <v>      -0.22222222       0.22222222       0.14285714 </v>
   <v>       0.33333333       0.33333333       0.14285714 </v>
   <v>       0.44444444       0.33333333       0.14285714 </v>
   <v>      -0.44444444       0.33333333       0.14285714 </v>
   <v>      -0.33333333       0.33333333       0.14285714 </v>
   <v>       0.44444444       0.44444444       0.14285714 </v>
   <v>      -0.44444444       0.44444444       0.14285714 </v>
   <v>       0.00000000       0.00000000       0.28571429 </v>
   <v>       0.11111111      -0.00000000       0.28571429 </v>
   <v>       0.22222222      -0.00000000       0.28571429 </v>
   <v>       0.33333333      -0.00000000       0.28571429 </v>
   <v>       0.44444444      -0.00000000       0.28571429 </v>
   <v>       0.11111111       0.11111111       0.28571429 </v>
   <v>       0.22222222       0.11111111       0.28571429 </v>
   <v>       0.33333333       0.11111111       0.28571429 </v>
   <v>       0.44444444       0.11111111       0.28571429 </v>
   <v>      -0.44444444       0.11111111       0.28571429 </v>
   <v>      -0.33333333       0.11111111       0.28571429 </v>
   <v>      -0.22222222       0.11111111       0.28571429 </v>
   <v>      -0.11111111       0.11111111       0.28571429 </v>
   <v>       0.22222222       0.22222222       0.28571429 </v>
   <v>       0.33333333       0.22222222       0.28571429 </v>
   <v>       0.44444444       0.22222222       0.28571429 </v>
   <v>      -0.44444444       0.22222222       0.28571429 </v>
   <v>      -0.33333333       0.22222222       0.28571429 </v>
   <v>      -0.22222222       0.22222222       0.28571429 </v>
   <v>       0.33333333       0.33333333       0.28571429 </v>
   <v>       0.44444444       0.33333333       0.28571429 </v>
   <v>      -0.44444444       0.33333333       0.28571429 </v>
   <v>      -0.33333333       0.33333333       0.28571429 </v>
   <v>       0.44444444       0.44444444       0.28571429 </v>
   <v>      -0.44444444       0.44444444       0.28571429 </v>
   <v>       0.00000000       0.00000000       0.42857143 </v>
   <v>       0.11111111      -0.00000000       0.42857143 </v>
   <v>       0.22222222      -0.00000000       0.42857143 </v>
   <v>       0.33333333      -0.00000000       0.42857143 </v>
   <v>       0.44444444      -0.00000000       0.42857143 </v>
   <v>       0.11111111       0.11111111       0.42857143 </v>
   <v>       0.22222222       0.11111111       0.42857143 </v>
   <v>       0.33333333       0.11111111       0.42857143 </v>
   <v>       0.44444444       0.11111111       0.42857143 </v>
   <v>      -0.44444444       0.11111111       0.42857143 </v>
   <v>      -0.33333333       0.11111111       0.42857143 </v>
   <v>      -0.22222222       0.11111111       0.42857143 </v>
   <v>      -0.11111111       0.11111111       0.42857143 </v>
   <v>       0.22222222       0.22222222       0.42857143 </v>
   <v>       0.33333333       0.22222222       0.42857143 </v>
   <v>       0.44444444       0.22222222       0.42857143 </v>
   <v>      -0.44444444       0.22222222       0.42857143 </v>
   <v>      -0.33333333       0.22222222       0.42857143 </v>
   <v>      -0.22222222       0.22222222       0.42857143 </v>
   <v>       0.33333333       0.33333333       0.42857143 </v>
   <v>       0.44444444       0.33333333       0.42857143 </v>
   <v>      -0.44444444       0.33333333       0.42857143 </v>
   <v>      -0.33333333       0.33333333       0.42857143 </v>
   <v>       0.44444444       0.44444444       0.42857143 </v>
   <v>      -0.44444444       0.44444444       0.42857143 </v>
  </varray>
  <varray name="weights" >
   <v>       0.00176367 </v>
   <v>       0.00705467 </v>
   <v>       0.00705467 </v>
   <v>       0.00705467 </v>
   <v>       0.00705467 </v>
   <v>       0.00352734 </v>
   <v>       0.00705467 </v>
   <v>       0.00705467 </v>
   <v>       0.00705467 </v>
   <v>       0.00705467 </v>
   <v>       0.00705467 </v>
   <v>       0.00705467 </v>
   <v>       0.00352734 </v>
   <v>       0.00352734 </v>
   <v>       0.00705467 </v>
   <v>       0.00705467 </v>
   <v>       0.00705467 </v>
   <v>       0.00705467 </v>
   <v>       0.00352734 </v>
   <v>       0.00352734 </v>
   <v>       0.00705467 </v>
   <v>       0.00705467 </v>
   <v>       0.00352734 </v>
   <v>       0.00352734 </v>
   <v>       0.00352734 </v>
   <v>       0.00352734 </v>
   <v>       0.01410935 </v>
   <v>       0.01410935 </v>
   <v>       0.01410935 </v>
   <v>       0.01410935 </v>
   <v>       0.00705467 </v>
   <v>       0.01410935 </v>
   <v>       0.01410935 </v>
   <v>       0.01410935 </v>
   <v>       0.01410935 </v>
   <v>       0.01410935 </v>
   <v>       0.01410935 </v>
   <v>       0.00705467 </v>
   <v>       0.00705467 </v>
   <v>       0.01410935 </v>
   <v>       0.01410935 </v>
   <v>       0.01410935 </v>
   <v>       0.01410935 </v>
   <v>       0.00705467 </v>
   <v>       0.00705467 </v>
   <v>       0.01410935 </v>
   <v>       0.01410935 </v>
   <v>       0.00705467 </v>
   <v>       0.00705467 </v>
   <v>       0.00705467 </v>
   <v>       0.00352734 </v>
   <v>       0.01410935 </v>
   <v>       0.01410935 </v>
   <v>       0.01410935 </v>
   <v>       0.01410935 </v>
   <v>       0.00705467 </v>
   <v>       0.01410935 </v>
   <v>       0.01410935 </v>
   <v>       0.01410935 </v>
   <v>       0.01410935 </v>
   <v>       0.01410935 </v>
   <v>       0.01410935 </v>
   <v>       0.00705467 </v>
   <v>       0.00705467 </v>
   <v>       0.01410935 </v>
   <v>       0.01410935 </v>
   <v>       0.01410935 </v>
   <v>       0.01410935 </v>
   <v>       0.00705467 </v>
   <v>       0.00705467 </v>
   <v>       0.01410935 </v>
   <v>       0.01410935 </v>
   <v>       0.00705467 </v>
   <v>       0.00705467 </v>
   <v>       0.00705467 </v>
   <v>       0.00352734 </v>
   <v>       0.01410935 </v>
   <v>       0.01410935 </v>
   <v>       0.01410935 </v>
   <v>       0.01410935 </v>
   <v>       0.00705467 </v>
   <v>       0.01410935 </v>
   <v>       0.01410935 </v>
   <v>       0.01410935 </v>
   <v>       0.01410935 </v>
   <v>       0.01410935 </v>
   <v>       0.01410935 </v>
   <v>       0.00705467 </v>
   <v>       0.00705467 </v>
   <v>       0.01410935 </v>
   <v>       0.01410935 </v>
   <v>       0.01410935 </v>
   <v>       0.01410935 </v>
   <v>       0.00705467 </v>
   <v>       0.00705467 </v>
   <v>       0.01410935 </v>
   <v>       0.01410935 </v>
   <v>       0.00705467 </v>
   <v>       0.00705467 </v>
   <v>       0.00705467 </v>
  </varray>
 </kpoints>
 <parameters>
  <separator name="general" >
   <i type="string" name="SYSTEM">unknown system</i>
   <i type="logical" name="LCOMPAT"> F  </i>
  </separator>
  <separator name="electronic" >
   <i type="string" name="PREC">normal</i>
   <i name="ENMAX">    400.00000000</i>
   <i name="ENAUG">    490.69000000</i>
   <i name="EDIFF">      0.00000010</i>
   <i type="int" name="IALGO">    38</i>
   <i type="int" name="IWAVPR">    11</i>
   <i type="int" name="NBANDS">    32</i>
   <i type="int" name="NBANDSLOW">    -1</i>
   <i type="int" name="NBANDSHIGH">    -1</i>
   <i name="NELECT">     52.00000000</i>
   <i type="int" name="TURBO">     0</i>
   <i type="int" name="IRESTART">     0</i>
   <i type="int" name="NREBOOT">     0</i>
   <i type="int" name="NMIN">     0</i>
   <i name="EREF">      0.00000000</i>
   <separator name="electronic smearing" >
    <i type="int" name="ISMEAR">     0</i>
    <i name="SIGMA">      0.10000000</i>
    <i name="KSPACING">      0.50000000</i>
    <i type="logical" name="KGAMMA"> T  </i>
    <i type="logical" name="KBLOWUP"> T  </i>
   </separator>
   <separator name="electronic projectors" >
    <i type="logical" name="LREAL"> F  </i>
    <v name="ROPT">      0.00000000</v>
    <i type="int" name="LMAXPAW">  -100</i>
    <i type="int" name="LMAXMIX">     2</i>
    <i type="logical" name="NLSPLINE"> F  </i>
   </separator>
   <separator name="electronic startup" >
    <i type="int" name="ISTART">     0</i>
    <i type="int" name="ICHARG">     2</i>
    <i type="int" name="INIWAV">     1</i>
   </separator>
   <separator name="electronic spin" >
    <i type="int" name="ISPIN">     1</i>
    <i type="logical" name="LNONCOLLINEAR"> F  </i>
    <v name="MAGMOM">      1.00000000      1.00000000      1.00000000      1.00000000</v>
    <i name="NUPDOWN">     -1.00000000</i>
    <i type="logical" name="LSORBIT"> F  </i>
    <v name="SAXIS">      0.00000000      0.00000000      1.00000000</v>
    <i type="logical" name="LSPIRAL"> F  </i>
    <v name="QSPIRAL">      0.00000000      0.00000000      0.00000000</v>
    <i type="logical" name="LZEROZ"> F  </i>
   </separator>
   <separator name="electronic exchange-correlation" >
    <i type="logical" name="LASPH"> T  </i>
    <i type="logical" name="LMETAGGA"> F  </i>
   </separator>
   <separator name="electronic convergence" >
    <i type="int" name="NELM">   100</i>
    <i type="int" name="NELMDL">    -5</i>
    <i type="int" name="NELMIN">     2</i>
    <i name="ENINI">    400.00000000</i>
    <separator name="electronic convergence detail" >
     <i type="logical" name="LDIAG"> T  </i>
     <i type="logical" name="LSUBROT"> F  </i>
     <i name="WEIMIN">      0.00100000</i>
     <i name="EBREAK">      0.00000000</i>
     <i name="DEPER">      0.30000000</i>
     <i type="int" name="NRMM">     4</i>
     <i name="TIME">      0.40000000</i>
    </separator>
   </separator>
   <separator name="electronic mixer" >
    <i name="AMIX">      0.40000000</i>
    <i name="BMIX">      1.00000000</i>
    <i name="AMIN">      0.10000000</i>
    <i name="AMIX_MAG">      1.60000000</i>
    <i name="BMIX_MAG">      1.00000000</i>
    <separator name="electronic mixer details" >
     <i type="int" name="IMIX">     4</i>
     <i type="logical" name="MIXFIRST"> F  </i>
     <i type="int" name="MAXMIX">   -45</i>
     <i name="WC">    100.00000000</i>
     <i type="int" name="INIMIX">     1</i>
     <i type="int" name="MIXPRE">     1</i>
     <i type="int" name="MREMOVE">     5</i>
    </separator>
   </separator>
   <separator name="electronic dipolcorrection" >
    <i type="logical" name="LDIPOL"> F  </i>
    <i type="logical" name="LMONO"> F  </i>
    <i type="int" name="IDIPOL">     0</i>
    <i name="EPSILON">      1.00000000</i>
    <v name="DIPOL">   -100.00000000   -100.00000000   -100.00000000</v>
    <i name="EFIELD">      0.00000000</i>
   </separator>
  </separator>
  <separator name="grids" >
   <i type="int" name="NGX">    24</i>
   <i type="int" name="NGY">    24</i>
   <i type="int" name="NGZ">    24</i>
   <i type="int" name="NGXF">    48</i>
   <i type="int" name="NGYF">    48</i>
   <i type="int" name="NGZF">    48</i>
   <i type="logical" name="ADDGRID"> F  </i>
  </separator>
  <separator name="ionic" >
   <i type="int" name="NSW">    20</i>
   <i type="int" name="IBRION">     2</i>
   <i type="int" name="MDALGO">     0</i>
   <i type="int" name="ISIF">     3</i>
   <i name="PSTRESS">      0.00000000</i>
   <i name="EDIFFG">     -0.00500000</i>
   <i type="int" name="NFREE">     1</i>
   <i name="POTIM">      0.50000000</i>
   <i name="SMASS">     -3.00000000</i>
   <i name="SCALEE">      1.00000000</i>
  </separator>
  <separator name="ionic md" >
   <i name="TEBEG">      0.00010000</i>
   <i name="TEEND">      0.00010000</i>
   <i type="int" name="NBLOCK">     1</i>
   <i type="int" name="KBLOCK">    20</i>
   <i type="int" name="NPACO">   256</i>
   <i name="APACO">     10.00000000</i>
  </separator>
  <separator name="symmetry" >
   <i type="int" name="ISYM">     2</i>
   <i name="SYMPREC">      0.00001000</i>
  </separator>
  <separator name="dos" >
   <i type="int" name="LORBIT">    10</i>
   <v name="RWIGS">     -1.00000000</v>
   <i type="int" name="NEDOS">   301</i>
   <i name="EMIN">     10.00000000</i>
   <i name="EMAX">    -10.00000000</i>
   <i name="EFERMI">      0.00000000</i>
  </separator>
  <separator name="writing" >
   <i type="int" name="NWRITE">     2</i>
   <i type="logical" name="LWAVE"> F  </i>
   <i type="logical" name="LDOWNSAMPLE"> F  </i>
   <i type="logical" name="LCHARG"> F  </i>
   <i type="logical" name="LPARD"> F  </i>
   <i type="logical" name="LVTOT"> F  </i>
   <i type="logical" name="LVHAR"> F  </i>
   <i type="logical" name="LELF"> F  </i>
   <i type="logical" name="LOPTICS"> F  </i>
   <v name="STM">      0.00000000      0.00000000      0.00000000      0.00000000      0.00000000      0.00000000      0.00000000</v>
  </separator>
  <separator name="performance" >
   <i type="int" name="NPAR">     8</i>
   <i type="int" name="NSIM">     4</i>
   <i type="int" name="NBLK">    -1</i>
   <i type="logical" name="LPLANE"> T  </i>
   <i type="logical" name="LSCALAPACK"> T  </i>
   <i type="logical" name="LSCAAWARE"> F  </i>
   <i type="logical" name="LSCALU"> F  </i>
   <i type="logical" name="LASYNC"> F  </i>
   <i type="logical" name="LORBITALREAL"> F  </i>
  </separator>
  <separator name="miscellaneous" >
   <i type="int" name="IDIOT">     3</i>
   <i type="int" name="PHON_NSTRUCT">    -1</i>
   <i type="logical" name="LMUSIC"> F  </i>
   <v name="POMASS">     69.72300000</v>
   <v name="DARWINR">      0.00000000</v>
   <v name="DARWINV">      1.00000000</v>
   <i type="logical" name="LCORR"> T  </i>
  </separator>
  <i type="logical" name="GGA_COMPAT"> T  </i>
  <i type="logical" name="LBERRY"> F  </i>
  <i type="int" name="ICORELEVEL">     0</i>
  <i type="logical" name="LDAU"> F  </i>
  <i type="int" name="I_CONSTRAINED_M">     0</i>
  <separator name="electronic exchange-correlation" >
   <i type="string" name="GGA">--</i>
   <i type="int" name="VOSKOWN">     0</i>
   <i type="logical" name="LHFCALC"> F  </i>
   <i type="string" name="PRECFOCK"></i>
   <i type="logical" name="LSYMGRAD"> F  </i>
   <i type="logical" name="LHFONE"> F  </i>
   <i type="logical" name="LRHFCALC"> F  </i>
   <i type="logical" name="LTHOMAS"> F  </i>
   <i type="logical" name="LMODELHF"> F  </i>
   <i type="logical" name="LFOCKACE"> F  </i>
   <i name="ENCUT4O">     -1.00000000</i>
   <i type="int" name="EXXOEP">     0</i>
   <i type="int" name="FOURORBIT">     0</i>
   <i name="AEXX">      0.00000000</i>
   <i name="HFALPHA">      0.00000000</i>
   <i name="MCALPHA">      0.00000000</i>
   <i name="ALDAX">      1.00000000</i>
   <i name="AGGAX">      1.00000000</i>
   <i name="ALDAC">      1.00000000</i>
   <i name="AGGAC">      1.00000000</i>
   <i type="int" name="NKREDX">     1</i>
   <i type="int" name="NKREDY">     1</i>
   <i type="int" name="NKREDZ">     1</i>
   <i type="logical" name="SHIFTRED"> F  </i>
   <i type="logical" name="ODDONLY"> F  </i>
   <i type="logical" name="EVENONLY"> F  </i>
   <i type="int" name="LMAXFOCK">     0</i>
   <i type="int" name="NMAXFOCKAE">     0</i>
   <i type="logical" name="LFOCKAEDFT"> F  </i>
   <i name="HFSCREEN">      0.00000000</i>
   <i name="HFSCREENC">      0.00000000</i>
   <i type="int" name="NBANDSGWLOW">     0</i>
  </separator>
  <separator name="vdW DFT" >
   <i type="logical" name="LUSE_VDW"> F  </i>
   <i name="Zab_VDW">     -0.84910000</i>
   <i name="PARAM1">      0.12340000</i>
   <i name="PARAM2">      1.00000000</i>
   <i name="PARAM3">      0.00000000</i>
  </separator>
  <separator name="model GW" >
   <i type="int" name="MODEL_GW">     0</i>
   <i name="MODEL_EPS0">     11.50536316</i>
   <i name="MODEL_ALPHA">      1.00000000</i>
  </separator>
  <separator name="linear response parameters" >
   <i type="logical" name="LEPSILON"> F  </i>
   <i type="logical" name="LRPA"> F  </i>
   <i type="logical" name="LNABLA"> F  </i>
   <i type="logical" name="LVEL"> F  </i>
   <i name="CSHIFT">      0.10000000</i>
   <i name="OMEGAMAX">     -1.00000000</i>
   <i name="DEG_THRESHOLD">      0.00200000</i>
   <i name="RTIME">     -0.10000000</i>
   <i name="WPLASMAI">      0.00000000</i>
   <v name="DFIELD">      0.00000000      0.00000000      0.00000000</v>
   <v name="WPLASMA">      0.00000000      0.00000000      0.00000000      0.00000000      0.00000000      0.00000000      0.00000000      0.00000000      0.00000000</v>
  </separator>
  <separator name="orbital magnetization" >
   <i type="logical" name="NUCIND"> F  </i>
   <v name="MAGPOS">      0.00000000      0.00000000      0.00000000</v>
   <i type="logical" name="LNICSALL"> T  </i>
   <i type="logical" name="ORBITALMAG"> F  </i>
   <i type="logical" name="LMAGBLOCH"> F  </i>
   <i type="logical" name="LCHIMAG"> F  </i>
   <i type="logical" name="LGAUGE"> T  </i>
   <i type="int" name="MAGATOM">     0</i>
   <v name="MAGDIPOL">      0.00000000      0.00000000      0.00000000</v>
   <v name="AVECCONST">      0.00000000      0.00000000      0.00000000</v>
  </separator>
  <separator name="response functions" >
   <i type="logical" name="LFINITE_TEMPERATURE"> F  </i>
   <i type="logical" name="LADDER"> F  </i>
   <i type="logical" name="LRPAFORCE"> F  </i>
   <i type="logical" name="LFXC"> F  </i>
   <i type="logical" name="LHARTREE"> T  </i>
   <i type="int" name="IBSE">     0</i>
   <v type="int" name="KPOINT">    -1     0     0     0</v>
   <i type="logical" name="LTCTC"> F  </i>
   <i type="logical" name="LTCTE"> F  </i>
   <i type="logical" name="LTETE"> F  </i>
   <i type="logical" name="LTRIPLET"> F  </i>
   <i type="logical" name="LFXCEPS"> F  </i>
   <i type="logical" name="LFXHEG"> F  </i>
   <i type="int" name="NATURALO">     2</i>
   <i type="logical" name="LHOLEGF"> F  </i>
   <i type="logical" name="L2ORDER"> F  </i>
   <i type="logical" name="LDMP1"> F  </i>
   <i type="logical" name="LMP2LT"> F  </i>
   <i type="logical" name="LSMP2LT"> F  </i>
   <i type="logical" name="LGWLF"> F  </i>
   <i name="ENCUTGW">     -2.00000000</i>
   <i name="ENCUTGWSOFT">     -2.00000000</i>
   <i name="ENCUTLF">     -1.00000000</i>
   <i type="logical" name="LESF_SPLINES"> F  </i>
   <i type="int" name="LMAXMP2">    -1</i>
   <i name="SCISSOR">      0.00000000</i>
   <i type="int" name="NOMEGA">     0</i>
   <i type="int" name="NOMEGAR">     0</i>
   <i type="int" name="NBANDSGW">    -1</i>
   <i type="int" name="NBANDSO">    -1</i>
   <i type="int" name="NBANDSV">    -1</i>
   <i type="int" name="NELMGW">     1</i>
   <i type="int" name="NELMHF">     1</i>
   <i type="int" name="DIM">     3</i>
   <i type="int" name="IESPILON">     4</i>
   <i type="int" name="ANTIRES">     0</i>
   <i name="OMEGAMAX">    -30.00000000</i>
   <i name="OMEGAMIN">    -30.00000000</i>
   <i name="OMEGATL">   -200.00000000</i>
   <i type="int" name="OMEGAGRID">     0</i>
   <i name="CSHIFT">     -0.10000000</i>
   <i type="logical" name="LSELFENERGY"> F  </i>
   <i type="logical" name="LSPECTRAL"> F  </i>
   <i type="logical" name="LSPECTRALGW"> F  </i>
   <i type="logical" name="LSINGLES"> F  </i>
   <i type="logical" name="LFERMIGW"> F  </i>
   <i type="logical" name="ODDONLYGW"> F  </i>
   <i type="logical" name="EVENONLYGW"> F  </i>
   <i type="int" name="NKREDLFX">     1</i>
   <i type="int" name="NKREDLFY">     1</i>
   <i type="int" name="NKREDLFZ">     1</i>
   <i type="int" name="MAXMEM">  2800</i>
   <i type="int" name="TELESCOPE">     0</i>
   <i type="int" name="NTAUPAR">    -1</i>
   <i type="int" name="NOMEGAPAR">    -1</i>
   <i name="DAMP_NEWTON">      0.80000001</i>
   <i name="LAMBDA">      1.00000000</i>
  </separator>
  <separator name="External order field" >
   <i name="OFIELD_KAPPA">      0.00000000</i>
   <v name="OFIELD_K">      0.00000000      0.00000000      0.00000000</v>
   <i name="OFIELD_Q6_NEAR">      0.00000000</i>
   <i name="OFIELD_Q6_FAR">      0.00000000</i>
   <i name="OFIELD_A">      0.00000000</i>
  </separator>
  <separator name="optional k-points parameters" >
   <i type="int" name="KPOINTS_OPT_MODE">     1</i>
   <i type="logical" name="LKPOINTS_OPT"> F  </i>
  </separator>
 </parameters>
 <atominfo>
  <atoms>       4 </atoms>
  <types>       1 </types>
  <array name="atoms" >
   <dimension dim="1">ion</dimension>
   <field type="string">element</field>
   <field type="int">atomtype</field>
   <set>
    <rc><c>Ga</c><c>   1</c></rc>
    <rc><c>Ga</c><c>   1</c></rc>
    <rc><c>Ga</c><c>   1</c></rc>
    <rc><c>Ga</c><c>   1</c></rc>
   </set>
  </array>
  <array name="atomtypes" >
   <dimension dim="1">type</dimension>
   <field type="int">atomspertype</field>
   <field type="string">element</field>
   <field>mass</field>
   <field>valence</field>
   <field type="string">pseudopotential</field>
   <set>
    <rc><c>   4</c><c>Ga</c><c>     69.72300000</c><c>     13.00000000</c><c>  PAW_PBE Ga_d 06Jul2010                </c></rc>
   </set>
  </array>
 </atominfo>
 <structure name="initialpos" >
  <crystal>
   <varray name="basis" >
    <v>       2.21602333      -3.79899184       0.00000000 </v>
    <v>       2.21602333       3.79899184       0.00000000 </v>
    <v>       0.00000000       0.00000000       4.55550353 </v>
   </varray>
   <i name="volume">     76.70242104 </i>
   <varray name="rec_basis" >
    <v>       0.22562939      -0.13161387       0.00000000 </v>
    <v>       0.22562939       0.13161387       0.00000000 </v>
    <v>       0.00000000       0.00000000       0.21951470 </v>
   </varray>
  </crystal>
  <varray name="positions" >
   <v>       0.65569572       0.34430428       0.41540139 </v>
   <v>       0.84430428       0.15569572       0.91540139 </v>
   <v>       0.34430428       0.65569572       0.58459861 </v>
   <v>       0.15569572       0.84430428       0.08459861 </v>
  </varray>
 </structure>
 <calculation>
  <scstep>
   <time name="dav">    0.19    0.20</time>
   <time name="total">    0.32    0.34</time>
   <energy>
    <i name="alphaZ">    281.68605094 </i>
    <i name="ewald">  -5064.01715997 </i>
    <i name="hartreedc">  -2310.52749804 </i>
    <i name="XCdc">    176.46261566 </i>
    <i name="pawpsdc">   6412.62289996 </i>
    <i name="pawaedc">  -7746.83504275 </i>
    <i name="eentropy">     -0.00191662 </i>
    <i name="bandstr">    -18.47131384 </i>
    <i name="atom">   8595.27849819 </i>
    <i name="e_fr_energy">    326.19713353 </i>
    <i name="e_wo_entrp">    326.19905015 </i>
    <i name="e_0_energy">    326.19809184 </i>
   </energy>
  </scstep>
  <scstep>
   <time name="dav">    0.17    0.17</time>
   <time name="total">    0.17    0.17</time>
   <energy>
    <i name="e_fr_energy">     25.20689244 </i>
    <i name="e_wo_entrp">     25.21258449 </i>
    <i name="e_0_energy">     25.20973847 </i>
   </energy>
  </scstep>
  <scstep>
   <time name="dav">    0.19    0.19</time>
   <time name="total">    0.19    0.19</time>
   <energy>
    <i name="e_fr_energy">    -10.71828311 </i>
    <i name="e_wo_entrp">    -10.71500011 </i>
    <i name="e_0_energy">    -10.71664161 </i>
   </energy>
  </scstep>
  <scstep>
   <time name="dav">    0.18    0.18</time>
   <time name="total">    0.18    0.18</time>
   <energy>
    <i name="e_fr_energy">    -11.64764820 </i>
    <i name="e_wo_entrp">    -11.64379290 </i>
    <i name="e_0_energy">    -11.64572055 </i>
   </energy>
  </scstep>
  <scstep>
   <time name="dav">    0.19    0.20</time>
   <time name="total">    0.21    0.21</time>
   <energy>
    <i name="e_fr_energy">    -11.66849928 </i>
    <i name="e_wo_entrp">    -11.66464539 </i>
    <i name="e_0_energy">    -11.66657234 </i>
   </energy>
  </scstep>
  <scstep>
   <time name="dav">    0.19    0.19</time>
   <time name="total">    0.33    0.33</time>
   <energy>
    <i name="e_fr_energy">    -11.58759016 </i>
    <i name="e_wo_entrp">    -11.58375799 </i>
    <i name="e_0_energy">    -11.58567407 </i>
   </energy>
  </scstep>
  <scstep>
   <time name="dav">    0.22    0.23</time>
   <time name="total">    0.37    0.37</time>
   <energy>
    <i name="e_fr_energy">    -11.57221135 </i>
    <i name="e_wo_entrp">    -11.56840423 </i>
    <i name="e_0_energy">    -11.57030779 </i>
   </energy>
  </scstep>
  <scstep>
   <time name="dav">    0.18    0.18</time>
   <time name="total">    0.32    0.33</time>
   <energy>
    <i name="e_fr_energy">    -11.57103189 </i>
    <i name="e_wo_entrp">    -11.56721789 </i>
    <i name="e_0_energy">    -11.56912489 </i>
   </energy>
  </scstep>
  <scstep>
   <time name="dav">    0.18    0.18</time>
   <time name="total">    0.32    0.33</time>
   <energy>
    <i name="e_fr_energy">    -11.57119092 </i>
    <i name="e_wo_entrp">    -11.56736666 </i>
    <i name="e_0_energy">    -11.56927879 </i>
   </energy>
  </scstep>
  <scstep>
   <time name="dav">    0.19    0.19</time>
   <time name="total">    0.33    0.33</time>
   <energy>
    <i name="e_fr_energy">    -11.57120153 </i>
    <i name="e_wo_entrp">    -11.56737180 </i>
    <i name="e_0_energy">    -11.56928666 </i>
   </energy>
  </scstep>
  <scstep>
   <time name="dav">    0.19    0.19</time>
   <time name="total">    0.33    0.33</time>
   <energy>
    <i name="e_fr_energy">    -11.57120260 </i>
    <i name="e_wo_entrp">    -11.56737581 </i>
    <i name="e_0_energy">    -11.56928920 </i>
   </energy>
  </scstep>
  <scstep>
   <time name="dav">    0.19    0.19</time>
   <time name="total">    0.33    0.33</time>
   <energy>
    <i name="e_fr_energy">    -11.57120233 </i>
    <i name="e_wo_entrp">    -11.56737534 </i>
    <i name="e_0_energy">    -11.56928883 </i>
   </energy>
  </scstep>
  <scstep>
   <time name="dav">    0.20    0.20</time>
   <time name="total">    0.34    0.34</time>
   <energy>
    <i name="e_fr_energy">    -11.57120244 </i>
    <i name="e_wo_entrp">    -11.56737490 </i>
    <i name="e_0_energy">    -11.56928867 </i>
   </energy>
  </scstep>
  <scstep>
   <time name="dav">    0.14    0.14</time>
   <time name="total">    0.27    0.27</time>
   <energy>
    <i name="alphaZ">    281.68605094 </i>
    <i name="ewald">  -5064.01715997 </i>
    <i name="hartreedc">  -2283.17187989 </i>
    <i name="XCdc">    175.22926292 </i>
    <i name="pawpsdc">   6958.55543686 </i>
    <i name="pawaedc">  -8294.03353777 </i>
    <i name="eentropy">     -0.00382751 </i>
    <i name="bandstr">   -381.09404614 </i>
    <i name="atom">   8595.27849819 </i>
    <i name="e_fr_energy">    -11.57120237 </i>
    <i name="e_wo_entrp">    -11.56737485 </i>
    <i name="e_0_energy">    -11.56928861 </i>
   </energy>
  </scstep>
  <structure>
   <crystal>
    <varray name="basis" >
     <v>       2.21602333      -3.79899184       0.00000000 </v>
     <v>       2.21602333       3.79899184       0.00000000 </v>
     <v>       0.00000000       0.00000000       4.55550353 </v>
    </varray>
    <i name="volume">     76.70242104 </i>
    <varray name="rec_basis" >
     <v>       0.22562939      -0.13161387       0.00000000 </v>
     <v>       0.22562939       0.13161387       0.00000000 </v>
     <v>       0.00000000       0.00000000       0.21951470 </v>
    </varray>
   </crystal>
   <varray name="positions" >
    <v>       0.65569572       0.34430428       0.41540139 </v>
    <v>       0.84430428       0.15569572       0.91540139 </v>
    <v>       0.34430428       0.65569572       0.58459861 </v>
    <v>       0.15569572       0.84430428       0.08459861 </v>
   </varray>
  </structure>
  <varray name="forces" >
   <v>       0.00000000       0.02968065       0.02054950 </v>
   <v>      -0.00000000      -0.02968065       0.02054950 </v>
   <v>       0.00000000      -0.02968065      -0.02054950 </v>
   <v>       0.00000000       0.02968065      -0.02054950 </v>
  </varray>
  <varray name="stress" >
   <v>      38.99151925       0.00000000       0.00000000 </v>
   <v>       0.00000000      27.56067814       0.00000000 </v>
   <v>       0.00000000      -0.00000000      21.03977660 </v>
  </varray>
  <energy>
   <i name="e_fr_energy">    -11.57120237 </i>
   <i name="e_wo_entrp">    -11.56737485 </i>
   <i name="e_0_energy">    -11.56928861 </i>
  </energy>
  <time name="totalsc">    4.64    4.69</time>
 </calculation>
 <calculation>
  <scstep>
   <time name="dav">    0.18    0.18</time>
   <time name="total">    0.32    0.32</time>
   <energy>
    <i name="alphaZ">    267.91413732 </i>
    <i name="ewald">  -4981.24774657 </i>
    <i name="hartreedc">  -2244.40014534 </i>
    <i name="XCdc">    171.22724459 </i>
    <i name="pawpsdc">   6958.53448792 </i>
    <i name="pawaedc">  -8294.01262252 </i>
    <i name="eentropy">     -0.00469502 </i>
    <i name="bandstr">   -486.33121758 </i>
    <i name="atom">   8595.27849819 </i>
    <i name="e_fr_energy">    -13.04205902 </i>
    <i name="e_wo_entrp">    -13.03736401 </i>
    <i name="e_0_energy">    -13.03971151 </i>
   </energy>
  </scstep>
  <scstep>
   <time name="dav">    0.20    0.20</time>
   <time name="total">    0.34    0.34</time>
   <energy>
    <i name="e_fr_energy">    -11.92743826 </i>
    <i name="e_wo_entrp">    -11.92314100 </i>
    <i name="e_0_energy">    -11.92528963 </i>
   </energy>
  </scstep>
  <scstep>
   <time name="dav">    0.20    0.20</time>
   <time name="total">    0.34    0.34</time>
   <energy>
    <i name="e_fr_energy">    -11.63871639 </i>
    <i name="e_wo_entrp">    -11.63460160 </i>
    <i name="e_0_energy">    -11.63665900 </i>
   </energy>
  </scstep>
  <scstep>
   <time name="dav">    0.19    0.19</time>
   <time name="total">    0.33    0.33</time>
   <energy>
    <i name="e_fr_energy">    -11.60855342 </i>
    <i name="e_wo_entrp">    -11.60441817 </i>
    <i name="e_0_energy">    -11.60648580 </i>
   </energy>
  </scstep>
  <scstep>
   <time name="dav">    0.18    0.18</time>
   <time name="total">    0.32    0.33</time>
   <energy>
    <i name="e_fr_energy">    -11.60841710 </i>
    <i name="e_wo_entrp">    -11.60429180 </i>
    <i name="e_0_energy">    -11.60635445 </i>
   </energy>
  </scstep>
  <scstep>
   <time name="dav">    0.22    0.22</time>
   <time name="total">    0.36    0.36</time>
   <energy>
    <i name="e_fr_energy">    -11.60848853 </i>
    <i name="e_wo_entrp">    -11.60436426 </i>
    <i name="e_0_energy">    -11.60642640 </i>
   </energy>
  </scstep>
  <scstep>
   <time name="dav">    0.20    0.20</time>
   <time name="total">    0.34    0.35</time>
   <energy>
    <i name="e_fr_energy">    -11.60847938 </i>
    <i name="e_wo_entrp">    -11.60435690 </i>
    <i name="e_0_energy">    -11.60641814 </i>
   </energy>
  </scstep>
  <scstep>
   <time name="dav">    0.20    0.20</time>
   <time name="total">    0.34    0.34</time>
   <energy>
    <i name="e_fr_energy">    -11.60847925 </i>
    <i name="e_wo_entrp">    -11.60435689 </i>
    <i name="e_0_energy">    -11.60641807 </i>
   </energy>
  </scstep>
  <scstep>
   <time name="dav">    0.16    0.17</time>
   <time name="total">    0.30    0.30</time>
   <energy>
    <i name="alphaZ">    267.91413732 </i>
    <i name="ewald">  -4981.24774657 </i>
    <i name="hartreedc">  -2332.94749489 </i>
    <i name="XCdc">    174.79381999 </i>
    <i name="pawpsdc">   6884.90093024 </i>
    <i name="pawaedc">  -8220.01020044 </i>
    <i name="eentropy">     -0.00412229 </i>
    <i name="bandstr">   -400.28630081 </i>
    <i name="atom">   8595.27849819 </i>
    <i name="e_fr_energy">    -11.60847925 </i>
    <i name="e_wo_entrp">    -11.60435696 </i>
    <i name="e_0_energy">    -11.60641811 </i>
   </energy>
  </scstep>
  <structure>
   <crystal>
    <varray name="basis" >
     <v>       2.26591341      -3.85944625      -0.00000000 </v>
     <v>       2.26591341       3.85944625       0.00000000 </v>
     <v>       0.00000000      -0.00000000       4.61084456 </v>
    </varray>
    <i name="volume">     80.64524812 </i>
    <varray name="rec_basis" >
     <v>       0.22066157      -0.12955226      -0.00000000 </v>
     <v>       0.22066157       0.12955226       0.00000000 </v>
     <v>       0.00000000      -0.00000000       0.21688001 </v>
    </varray>
   </crystal>
   <varray name="positions" >
    <v>       0.65550727       0.34449273       0.41561901 </v>
    <v>       0.84449273       0.15550727       0.91561901 </v>
    <v>       0.34449273       0.65550727       0.58438099 </v>
    <v>       0.15550727       0.84449273       0.08438099 </v>
   </varray>
  </structure>
  <varray name="forces" >
   <v>       0.00000000      -0.01767409       0.00934641 </v>
   <v>       0.00000000       0.01767409       0.00934641 </v>
   <v>      -0.00000000       0.01767409      -0.00934641 </v>
   <v>      -0.00000000      -0.01767409      -0.00934641 </v>
  </varray>
  <varray name="stress" >
   <v>       5.93099878       0.00000000       0.00000000 </v>
   <v>       0.00000000      -0.19682009       0.00000000 </v>
   <v>       0.00000000      -0.00000000      -6.11796318 </v>
  </varray>
  <energy>
   <i name="e_fr_energy">    -11.60847925 </i>
   <i name="e_wo_entrp">    -11.60435696 </i>
   <i name="e_0_energy">    -11.60641811 </i>
  </energy>
  <time name="totalsc">    3.61    3.65</time>
 </calculation>
 <calculation>
  <scstep>
   <time name="dav">    0.18    0.18</time>
   <time name="total">    0.32    0.32</time>
   <energy>
    <i name="alphaZ">    267.31421446 </i>
    <i name="ewald">  -4977.57563663 </i>
    <i name="hartreedc">  -2331.16159636 </i>
    <i name="XCdc">    174.61280649 </i>
    <i name="pawpsdc">   6884.90119496 </i>
    <i name="pawaedc">  -8220.00984070 </i>
    <i name="eentropy">     -0.00416749 </i>
    <i name="bandstr">   -404.96692564 </i>
    <i name="atom">   8595.27849819 </i>
    <i name="e_fr_energy">    -11.61145271 </i>
    <i name="e_wo_entrp">    -11.60728522 </i>
    <i name="e_0_energy">    -11.60936896 </i>
   </energy>
  </scstep>
  <scstep>
   <time name="dav">    0.19    0.19</time>
   <time name="total">    0.33    0.34</time>
   <energy>
    <i name="e_fr_energy">    -11.60914613 </i>
    <i name="e_wo_entrp">    -11.60499253 </i>
    <i name="e_0_energy">    -11.60706933 </i>
   </energy>
  </scstep>
  <scstep>
   <time name="dav">    0.19    0.20</time>
   <time name="total">    0.34    0.34</time>
   <energy>
    <i name="e_fr_energy">    -11.60859035 </i>
    <i name="e_wo_entrp">    -11.60444323 </i>
    <i name="e_0_energy">    -11.60651679 </i>
   </energy>
  </scstep>
  <scstep>
   <time name="dav">    0.19    0.19</time>
   <time name="total">    0.33    0.33</time>
   <energy>
    <i name="e_fr_energy">    -11.60852453 </i>
    <i name="e_wo_entrp">    -11.60437711 </i>
    <i name="e_0_energy">    -11.60645082 </i>
   </energy>
  </scstep>
  <scstep>
   <time name="dav">    0.19    0.19</time>
   <time name="total">    0.33    0.33</time>
   <energy>
    <i name="e_fr_energy">    -11.60852513 </i>
    <i name="e_wo_entrp">    -11.60437792 </i>
    <i name="e_0_energy">    -11.60645153 </i>
   </energy>
  </scstep>
  <scstep>
   <time name="dav">    0.18    0.19</time>
   <time name="total">    0.33    0.33</time>
   <energy>
    <i name="e_fr_energy">    -11.60852545 </i>
    <i name="e_wo_entrp">    -11.60437831 </i>
    <i name="e_0_energy">    -11.60645188 </i>
   </energy>
  </scstep>
  <scstep>
   <time name="dav">    0.13    0.13</time>
   <time name="total">    0.26    0.26</time>
   <energy>
    <i name="alphaZ">    267.31421446 </i>
    <i name="ewald">  -4977.57563663 </i>
    <i name="hartreedc">  -2335.16798402 </i>
    <i name="XCdc">    174.77468049 </i>
    <i name="pawpsdc">   6881.78205433 </i>
    <i name="pawaedc">  -8216.88158109 </i>
    <i name="eentropy">     -0.00414708 </i>
    <i name="bandstr">   -401.12862411 </i>
    <i name="atom">   8595.27849819 </i>
    <i name="e_fr_energy">    -11.60852546 </i>
    <i name="e_wo_entrp">    -11.60437838 </i>
    <i name="e_0_energy">    -11.60645192 </i>
   </energy>
  </scstep>
  <structure>
   <crystal>
    <varray name="basis" >
     <v>       2.26816535      -3.86217504      -0.00000000 </v>
     <v>       2.26816535       3.86217504       0.00000000 </v>
     <v>       0.00000000      -0.00000000       4.61334254 </v>
    </varray>
    <i name="volume">     80.82623711 </i>
    <varray name="rec_basis" >
     <v>       0.22044248      -0.12946073      -0.00000000 </v>
     <v>       0.22044248       0.12946073       0.00000000 </v>
     <v>      -0.00000000      -0.00000000       0.21676257 </v>
    </varray>
   </crystal>
   <varray name="positions" >
    <v>       0.65549889       0.34450111       0.41562871 </v>
    <v>       0.84450111       0.15549889       0.91562871 </v>
    <v>       0.34450111       0.65549889       0.58437129 </v>
    <v>       0.15549889       0.84450111       0.08437129 </v>
   </varray>
  </structure>
  <varray name="forces" >
   <v>      -0.00000000      -0.02006742       0.00879618 </v>
   <v>       0.00000000       0.02006742       0.00879618 </v>
   <v>       0.00000000       0.02006742      -0.00879618 </v>
   <v>      -0.00000000      -0.02006742      -0.00879618 </v>
  </varray>
  <varray name="stress" >
   <v>       4.61167057       0.00000000       0.00000000 </v>
   <v>       0.00000000      -1.33771921       0.00000000 </v>
   <v>       0.00000000      -0.00000000      -7.34676224 </v>
  </varray>
  <energy>
   <i name="e_fr_energy">    -11.60852546 </i>
   <i name="e_wo_entrp">    -11.60437838 </i>
   <i name="e_0_energy">    -11.60645192 </i>
  </energy>
  <time name="totalsc">    2.86    2.89</time>
 </calculation>
 <calculation>
  <scstep>
   <time name="dav">    0.19    0.19</time>
   <time name="total">    0.33    0.34</time>
   <energy>
    <i name="alphaZ">    267.46713682 </i>
    <i name="ewald">  -4978.57476967 </i>
    <i name="hartreedc">  -2335.62533522 </i>
    <i name="XCdc">    174.82148133 </i>
    <i name="pawpsdc">   6881.77869353 </i>
    <i name="pawaedc">  -8216.87646678 </i>
    <i name="eentropy">     -0.00407196 </i>
    <i name="bandstr">   -399.88766528 </i>
    <i name="atom">   8595.27849819 </i>
    <i name="e_fr_energy">    -11.62249903 </i>
    <i name="e_wo_entrp">    -11.61842707 </i>
    <i name="e_0_energy">    -11.62046305 </i>
   </energy>
  </scstep>
  <scstep>
   <time name="dav">    0.18    0.18</time>
   <time name="total">    0.32    0.32</time>
   <energy>
    <i name="e_fr_energy">    -11.61503121 </i>
    <i name="e_wo_entrp">    -11.61102240 </i>
    <i name="e_0_energy">    -11.61302680 </i>
   </energy>
  </scstep>
  <scstep>
   <time name="dav">    0.20    0.20</time>
   <time name="total">    0.34    0.34</time>
   <energy>
    <i name="e_fr_energy">    -11.61052942 </i>
    <i name="e_wo_entrp">    -11.60662553 </i>
    <i name="e_0_energy">    -11.60857748 </i>
   </energy>
  </scstep>
  <scstep>
   <time name="dav">    0.17    0.17</time>
   <time name="total">    0.31    0.31</time>
   <energy>
    <i name="e_fr_energy">    -11.61078862 </i>
    <i name="e_wo_entrp">    -11.60688015 </i>
    <i name="e_0_energy">    -11.60883438 </i>
   </energy>
  </scstep>
  <scstep>
   <time name="dav">    0.23    0.24</time>
   <time name="total">    0.37    0.38</time>
   <energy>
    <i name="e_fr_energy">    -11.61078536 </i>
    <i name="e_wo_entrp">    -11.60687247 </i>
    <i name="e_0_energy">    -11.60882892 </i>
   </energy>
  </scstep>
  <scstep>
   <time name="dav">    0.20    0.20</time>
   <time name="total">    0.34    0.34</time>
   <energy>
    <i name="e_fr_energy">    -11.61078562 </i>
    <i name="e_wo_entrp">    -11.60687359 </i>
    <i name="e_0_energy">    -11.60882960 </i>
   </energy>
  </scstep>
  <scstep>
   <time name="dav">    0.19    0.19</time>
   <time name="total">    0.33    0.34</time>
   <energy>
    <i name="e_fr_energy">    -11.61078550 </i>
    <i name="e_wo_entrp">    -11.60687353 </i>
    <i name="e_0_energy">    -11.60882952 </i>
   </energy>
  </scstep>
  <scstep>
   <time name="dav">    0.13    0.13</time>
   <time name="total">    0.26    0.27</time>
   <energy>
    <i name="alphaZ">    267.46713682 </i>
    <i name="ewald">  -4978.57476967 </i>
    <i name="hartreedc">  -2334.56920250 </i>
    <i name="XCdc">    174.77972574 </i>
    <i name="pawpsdc">   6882.54913249 </i>
    <i name="pawaedc">  -8217.64919804 </i>
    <i name="eentropy">     -0.00391208 </i>
    <i name="bandstr">   -400.88819643 </i>
    <i name="atom">   8595.27849819 </i>
    <i name="e_fr_energy">    -11.61078548 </i>
    <i name="e_wo_entrp">    -11.60687340 </i>
    <i name="e_0_energy">    -11.60882944 </i>
   </energy>
  </scstep>
  <structure>
   <crystal>
    <varray name="basis" >
     <v>       2.27654936      -3.86136502      -0.00000000 </v>
     <v>       2.27654936       3.86136502       0.00000000 </v>
     <v>       0.00000000      -0.00000000       4.59468836 </v>
    </varray>
    <i name="volume">     80.78002530 </i>
    <varray name="rec_basis" >
     <v>       0.21963064      -0.12948789      -0.00000000 </v>
     <v>       0.21963064       0.12948789       0.00000000 </v>
     <v>       0.00000000      -0.00000000       0.21764262 </v>
    </varray>
   </crystal>
   <varray name="positions" >
    <v>       0.65561823       0.34438177       0.41572979 </v>
    <v>       0.84438177       0.15561823       0.91572979 </v>
    <v>       0.34438177       0.65561823       0.58427021 </v>
    <v>       0.15561823       0.84438177       0.08427021 </v>
   </varray>
  </structure>
  <varray name="forces" >
   <v>       0.00000000      -0.01167071       0.00733267 </v>
   <v>      -0.00000000       0.01167071       0.00733267 </v>
   <v>       0.00000000       0.01167071      -0.00733267 </v>
   <v>      -0.00000000      -0.01167071      -0.00733267 </v>
  </varray>
  <varray name="stress" >
   <v>       4.40209489       0.00000000       0.00000000 </v>
   <v>       0.00000000      -0.58150576       0.00000000 </v>
   <v>       0.00000000       0.00000000      -5.72207351 </v>
  </varray>
  <energy>
   <i name="e_fr_energy">    -11.61078548 </i>
   <i name="e_wo_entrp">    -11.60687340 </i>
   <i name="e_0_energy">    -11.60882944 </i>
  </energy>
  <time name="totalsc">    3.23    3.26</time>
 </calculation>
 <calculation>
  <scstep>
   <time name="dav">    0.19    0.19</time>
   <time name="total">    0.33    0.33</time>
   <energy>
    <i name="alphaZ">    267.97484374 </i>
    <i name="ewald">  -4981.68199994 </i>
    <i name="hartreedc">  -2336.07536903 </i>
    <i name="XCdc">    174.93759999 </i>
    <i name="pawpsdc">   6882.55479835 </i>
    <i name="pawaedc">  -8217.65767482 </i>
    <i name="eentropy">     -0.00402624 </i>
    <i name="bandstr">   -397.04806349 </i>
    <i name="atom">   8595.27849819 </i>
    <i name="e_fr_energy">    -11.72139325 </i>
    <i name="e_wo_entrp">    -11.71736701 </i>
    <i name="e_0_energy">    -11.71938013 </i>
   </energy>
  </scstep>
  <scstep>
   <time name="dav">    0.18    0.18</time>
   <time name="total">    0.32    0.32</time>
   <energy>
    <i name="e_fr_energy">    -11.65299051 </i>
    <i name="e_wo_entrp">    -11.64926131 </i>
    <i name="e_0_energy">    -11.65112591 </i>
   </energy>
  </scstep>
  <scstep>
   <time name="dav">    0.20    0.21</time>
   <time name="total">    0.35    0.35</time>
   <energy>
    <i name="e_fr_energy">    -11.61234545 </i>
    <i name="e_wo_entrp">    -11.60924004 </i>
    <i name="e_0_energy">    -11.61079275 </i>
   </energy>
  </scstep>
  <scstep>
   <time name="dav">    0.17    0.17</time>
   <time name="total">    0.31    0.31</time>
   <energy>
    <i name="e_fr_energy">    -11.61445978 </i>
    <i name="e_wo_entrp">    -11.61132994 </i>
    <i name="e_0_energy">    -11.61289486 </i>
   </energy>
  </scstep>
  <scstep>
   <time name="dav">    0.22    0.23</time>
   <time name="total">    0.37    0.37</time>
   <energy>
    <i name="e_fr_energy">    -11.61444582 </i>
    <i name="e_wo_entrp">    -11.61128418 </i>
    <i name="e_0_energy">    -11.61286500 </i>
   </energy>
  </scstep>
  <scstep>
   <time name="dav">    0.19    0.19</time>
   <time name="total">    0.33    0.34</time>
   <energy>
    <i name="e_fr_energy">    -11.61443516 </i>
    <i name="e_wo_entrp">    -11.61128485 </i>
    <i name="e_0_energy">    -11.61286000 </i>
   </energy>
  </scstep>
  <scstep>
   <time name="dav">    0.20    0.20</time>
   <time name="total">    0.34    0.34</time>
   <energy>
    <i name="e_fr_energy">    -11.61443581 </i>
    <i name="e_wo_entrp">    -11.61128547 </i>
    <i name="e_0_energy">    -11.61286064 </i>
   </energy>
  </scstep>
  <scstep>
   <time name="dav">    0.17    0.18</time>
   <time name="total">    0.32    0.32</time>
   <energy>
    <i name="e_fr_energy">    -11.61443575 </i>
    <i name="e_wo_entrp">    -11.61128450 </i>
    <i name="e_0_energy">    -11.61286012 </i>
   </energy>
  </scstep>
  <scstep>
   <time name="dav">    0.15    0.15</time>
   <time name="total">    0.28    0.28</time>
   <energy>
    <i name="alphaZ">    267.97484374 </i>
    <i name="ewald">  -4981.68199994 </i>
    <i name="hartreedc">  -2332.77263053 </i>
    <i name="XCdc">    174.79794642 </i>
    <i name="pawpsdc">   6885.76043777 </i>
    <i name="pawaedc">  -8220.87595785 </i>
    <i name="eentropy">     -0.00315090 </i>
    <i name="bandstr">   -400.09242269 </i>
    <i name="atom">   8595.27849819 </i>
    <i name="e_fr_energy">    -11.61443578 </i>
    <i name="e_wo_entrp">    -11.61128488 </i>
    <i name="e_0_energy">    -11.61286033 </i>
   </energy>
  </scstep>
  <structure>
   <crystal>
    <varray name="basis" >
     <v>       2.30170141      -3.85893496      -0.00000000 </v>
     <v>       2.30170141       3.85893496       0.00000000 </v>
     <v>       0.00000000      -0.00000000       4.53872582 </v>
    </varray>
    <i name="volume">     80.62697893 </i>
    <varray name="rec_basis" >
     <v>       0.21723061      -0.12956943      -0.00000000 </v>
     <v>       0.21723061       0.12956943       0.00000000 </v>
     <v>      -0.00000000      -0.00000000       0.22032615 </v>
    </varray>
   </crystal>
   <varray name="positions" >
    <v>       0.65597633       0.34402367       0.41603423 </v>
    <v>       0.84402367       0.15597633       0.91603423 </v>
    <v>       0.34402367       0.65597633       0.58396577 </v>
    <v>       0.15597633       0.84402367       0.08396577 </v>
   </varray>
  </structure>
  <varray name="forces" >
   <v>      -0.00000000       0.01349403       0.00314667 </v>
   <v>      -0.00000000      -0.01349403       0.00314667 </v>
   <v>       0.00000000      -0.01349403      -0.00314667 </v>
   <v>       0.00000000       0.01349403      -0.00314667 </v>
  </varray>
  <varray name="stress" >
   <v>       1.44765407       0.00000000       0.00000000 </v>
   <v>       0.00000000       1.05008930       0.00000000 </v>
   <v>       0.00000000      -0.00000000       0.05631675 </v>
  </varray>
  <energy>
   <i name="e_fr_energy">    -11.61443578 </i>
   <i name="e_wo_entrp">    -11.61128488 </i>
   <i name="e_0_energy">    -11.61286033 </i>
  </energy>
  <time name="totalsc">    3.57    3.60</time>
 </calculation>
 <calculation>
  <scstep>
   <time name="dav">    0.19    0.19</time>
   <time name="total">    0.33    0.33</time>
   <energy>
    <i name="alphaZ">    268.03509987 </i>
    <i name="ewald">  -4982.03249113 </i>
    <i name="hartreedc">  -2332.97963578 </i>
    <i name="XCdc">    174.81620752 </i>
    <i name="pawpsdc">   6885.75980801 </i>
    <i name="pawaedc">  -8220.87520224 </i>
    <i name="eentropy">     -0.00324238 </i>
    <i name="bandstr">   -399.61479937 </i>
    <i name="atom">   8595.27849819 </i>
    <i name="e_fr_energy">    -11.61575731 </i>
    <i name="e_wo_entrp">    -11.61251493 </i>
    <i name="e_0_energy">    -11.61413612 </i>
   </energy>
  </scstep>
  <scstep>
   <time name="dav">    0.18    0.18</time>
   <time name="total">    0.32    0.32</time>
   <energy>
    <i name="e_fr_energy">    -11.61492648 </i>
    <i name="e_wo_entrp">    -11.61173166 </i>
    <i name="e_0_energy">    -11.61332907 </i>
   </energy>
  </scstep>
  <scstep>
   <time name="dav">    0.20    0.20</time>
   <time name="total">    0.34    0.34</time>
   <energy>
    <i name="e_fr_energy">    -11.61442677 </i>
    <i name="e_wo_entrp">    -11.61130047 </i>
    <i name="e_0_energy">    -11.61286362 </i>
   </energy>
  </scstep>
  <scstep>
   <time name="dav">    0.17    0.17</time>
   <time name="total">    0.31    0.31</time>
   <energy>
    <i name="e_fr_energy">    -11.61445563 </i>
    <i name="e_wo_entrp">    -11.61132724 </i>
    <i name="e_0_energy">    -11.61289144 </i>
   </energy>
  </scstep>
  <scstep>
   <time name="dav">    0.23    0.23</time>
   <time name="total">    0.37    0.38</time>
   <energy>
    <i name="e_fr_energy">    -11.61445514 </i>
    <i name="e_wo_entrp">    -11.61132359 </i>
    <i name="e_0_energy">    -11.61288936 </i>
   </energy>
  </scstep>
  <scstep>
   <time name="dav">    0.15    0.15</time>
   <time name="total">    0.28    0.29</time>
   <energy>
    <i name="alphaZ">    268.03509987 </i>
    <i name="ewald">  -4982.03249113 </i>
    <i name="hartreedc">  -2332.57355811 </i>
    <i name="XCdc">    174.80028377 </i>
    <i name="pawpsdc">   6886.17870454 </i>
    <i name="pawaedc">  -8221.30153768 </i>
    <i name="eentropy">     -0.00313095 </i>
    <i name="bandstr">   -399.99632366 </i>
    <i name="atom">   8595.27849819 </i>
    <i name="e_fr_energy">    -11.61445516 </i>
    <i name="e_wo_entrp">    -11.61132421 </i>
    <i name="e_0_energy">    -11.61288969 </i>
   </energy>
  </scstep>
  <structure>
   <crystal>
    <varray name="basis" >
     <v>       2.30446389      -3.85866807      -0.00000000 </v>
     <v>       2.30446389       3.85866807       0.00000000 </v>
     <v>       0.00000000      -0.00000000       4.53257940 </v>
    </varray>
    <i name="volume">     80.60885343 </i>
    <varray name="rec_basis" >
     <v>       0.21697020      -0.12957839      -0.00000000 </v>
     <v>       0.21697020       0.12957839       0.00000000 </v>
     <v>       0.00000000      -0.00000000       0.22062493 </v>
    </varray>
   </crystal>
   <varray name="positions" >
    <v>       0.65601568       0.34398432       0.41606808 </v>
    <v>       0.84398432       0.15601568       0.91606808 </v>
    <v>       0.34398432       0.65601568       0.58393192 </v>
    <v>       0.15601568       0.84398432       0.08393192 </v>
   </varray>
  </structure>
  <varray name="forces" >
   <v>       0.00000000       0.01717179       0.00257054 </v>
   <v>      -0.00000000      -0.01717179       0.00257054 </v>
   <v>      -0.00000000      -0.01717179      -0.00257054 </v>
   <v>       0.00000000       0.01717179      -0.00257054 </v>
  </varray>
  <varray name="stress" >
   <v>       0.40331135       0.00000000       0.00000000 </v>
   <v>       0.00000000       0.66554809      -0.00000000 </v>
   <v>       0.00000000       0.00000000       0.35793655 </v>
  </varray>
  <energy>
   <i name="e_fr_energy">    -11.61445516 </i>
   <i name="e_wo_entrp">    -11.61132421 </i>
   <i name="e_0_energy">    -11.61288969 </i>
  </energy>
  <time name="totalsc">    2.58    2.61</time>
 </calculation>
 <calculation>
  <scstep>
   <time name="dav">    0.19    0.19</time>
   <time name="total">    0.33    0.33</time>
   <energy>
    <i name="alphaZ">    268.02067800 </i>
    <i name="ewald">  -4981.94892030 </i>
    <i name="hartreedc">  -2332.51648053 </i>
    <i name="XCdc">    174.79565152 </i>
    <i name="pawpsdc">   6886.16788425 </i>
    <i name="pawaedc">  -8221.28537834 </i>
    <i name="eentropy">     -0.00310584 </i>
    <i name="bandstr">   -400.12336056 </i>
    <i name="atom">   8595.27849819 </i>
    <i name="e_fr_energy">    -11.61453362 </i>
    <i name="e_wo_entrp">    -11.61142778 </i>
    <i name="e_0_energy">    -11.61298070 </i>
   </energy>
  </scstep>
  <scstep>
   <time name="dav">    0.18    0.18</time>
   <time name="total">    0.32    0.32</time>
   <energy>
    <i name="e_fr_energy">    -11.61448640 </i>
    <i name="e_wo_entrp">    -11.61136951 </i>
    <i name="e_0_energy">    -11.61292795 </i>
   </energy>
  </scstep>
  <scstep>
   <time name="dav">    0.19    0.19</time>
   <time name="total">    0.33    0.34</time>
   <energy>
    <i name="e_fr_energy">    -11.61445766 </i>
    <i name="e_wo_entrp">    -11.61132454 </i>
    <i name="e_0_energy">    -11.61289110 </i>
   </energy>
  </scstep>
  <scstep>
   <time name="dav">    0.17    0.17</time>
   <time name="total">    0.31    0.31</time>
   <energy>
    <i name="e_fr_energy">    -11.61445928 </i>
    <i name="e_wo_entrp">    -11.61132661 </i>
    <i name="e_0_energy">    -11.61289295 </i>
   </energy>
  </scstep>
  <scstep>
   <time name="dav">    0.18    0.18</time>
   <time name="total">    0.31    0.32</time>
   <energy>
    <i name="alphaZ">    268.02067800 </i>
    <i name="ewald">  -4981.94892030 </i>
    <i name="hartreedc">  -2332.61325950 </i>
    <i name="XCdc">    174.79940981 </i>
    <i name="pawpsdc">   6886.06631163 </i>
    <i name="pawaedc">  -8221.18405754 </i>
    <i name="eentropy">     -0.00313193 </i>
    <i name="bandstr">   -400.02998758 </i>
    <i name="atom">   8595.27849819 </i>
    <i name="e_fr_energy">    -11.61445921 </i>
    <i name="e_wo_entrp">    -11.61132728 </i>
    <i name="e_0_energy">    -11.61289325 </i>
   </energy>
  </scstep>
  <structure>
   <crystal>
    <varray name="basis" >
     <v>       2.30380642      -3.85873159      -0.00000000 </v>
     <v>       2.30380642       3.85873159       0.00000000 </v>
     <v>       0.00000000      -0.00000000       4.53404224 </v>
    </varray>
    <i name="volume">     80.61319090 </i>
    <varray name="rec_basis" >
     <v>       0.21703212      -0.12957626      -0.00000000 </v>
     <v>       0.21703212       0.12957626       0.00000000 </v>
     <v>       0.00000000      -0.00000000       0.22055375 </v>
    </varray>
   </crystal>
   <varray name="positions" >
    <v>       0.65600631       0.34399369       0.41606001 </v>
    <v>       0.84399369       0.15600631       0.91606001 </v>
    <v>       0.34399369       0.65600631       0.58393999 </v>
    <v>       0.15600631       0.84399369       0.08393999 </v>
   </varray>
  </structure>
  <varray name="forces" >
   <v>       0.00000000       0.01574789       0.00301918 </v>
   <v>       0.00000000      -0.01574789       0.00301918 </v>
   <v>      -0.00000000      -0.01574789      -0.00301918 </v>
   <v>      -0.00000000       0.01574789      -0.00301918 </v>
  </varray>
  <varray name="stress" >
   <v>       1.15162227       0.00000000       0.00000000 </v>
   <v>       0.00000000       1.23795311       0.00000000 </v>
   <v>       0.00000000      -0.00000000       0.80253698 </v>
  </varray>
  <energy>
   <i name="e_fr_energy">    -11.61445921 </i>
   <i name="e_wo_entrp">    -11.61132728 </i>
   <i name="e_0_energy">    -11.61289325 </i>
  </energy>
  <time name="totalsc">    2.24    2.26</time>
 </calculation>
 <calculation>
  <scstep>
   <time name="dav">    0.19    0.19</time>
   <time name="total">    0.33    0.34</time>
   <energy>
    <i name="alphaZ">    267.18632743 </i>
    <i name="ewald">  -4977.14163472 </i>
    <i name="hartreedc">  -2329.85108399 </i>
    <i name="XCdc">    174.54749384 </i>
    <i name="pawpsdc">   6886.06853231 </i>
    <i name="pawaedc">  -8221.18430583 </i>
    <i name="eentropy">     -0.00319166 </i>
    <i name="bandstr">   -406.52103990 </i>
    <i name="atom">   8595.27849819 </i>
    <i name="e_fr_energy">    -11.62040432 </i>
    <i name="e_wo_entrp">    -11.61721266 </i>
    <i name="e_0_energy">    -11.61880849 </i>
   </energy>
  </scstep>
  <scstep>
   <time name="dav">    0.20    0.20</time>
   <time name="total">    0.34    0.34</time>
   <energy>
    <i name="e_fr_energy">    -11.61586441 </i>
    <i name="e_wo_entrp">    -11.61269103 </i>
    <i name="e_0_energy">    -11.61427772 </i>
   </energy>
  </scstep>
  <scstep>
   <time name="dav">    0.20    0.20</time>
   <time name="total">    0.34    0.34</time>
   <energy>
    <i name="e_fr_energy">    -11.61465408 </i>
    <i name="e_wo_entrp">    -11.61150714 </i>
    <i name="e_0_energy">    -11.61308061 </i>
   </energy>
  </scstep>
  <scstep>
   <time name="dav">    0.18    0.18</time>
   <time name="total">    0.32    0.32</time>
   <energy>
    <i name="e_fr_energy">    -11.61452779 </i>
    <i name="e_wo_entrp">    -11.61139447 </i>
    <i name="e_0_energy">    -11.61296113 </i>
   </energy>
  </scstep>
  <scstep>
   <time name="dav">    0.19    0.19</time>
   <time name="total">    0.33    0.33</time>
   <energy>
    <i name="e_fr_energy">    -11.61453132 </i>
    <i name="e_wo_entrp">    -11.61139719 </i>
    <i name="e_0_energy">    -11.61296425 </i>
   </energy>
  </scstep>
  <scstep>
   <time name="dav">    0.19    0.19</time>
   <time name="total">    0.33    0.33</time>
   <energy>
    <i name="e_fr_energy">    -11.61453063 </i>
    <i name="e_wo_entrp">    -11.61139604 </i>
    <i name="e_0_energy">    -11.61296333 </i>
   </energy>
  </scstep>
  <scstep>
   <time name="dav">    0.20    0.21</time>
   <time name="total">    0.33    0.34</time>
   <energy>
    <i name="alphaZ">    267.18632743 </i>
    <i name="ewald">  -4977.14163472 </i>
    <i name="hartreedc">  -2335.42358092 </i>
    <i name="XCdc">    174.77248734 </i>
    <i name="pawpsdc">   6881.75076329 </i>
    <i name="pawaedc">  -8216.85443223 </i>
    <i name="eentropy">     -0.00313444 </i>
    <i name="bandstr">   -401.17982455 </i>
    <i name="atom">   8595.27849819 </i>
    <i name="e_fr_energy">    -11.61453060 </i>
    <i name="e_wo_entrp">    -11.61139616 </i>
    <i name="e_0_energy">    -11.61296338 </i>
   </energy>
  </scstep>
  <structure>
   <crystal>
    <varray name="basis" >
     <v>       2.30809456      -3.86340563      -0.00000000 </v>
     <v>       2.30809456       3.86340563       0.00000000 </v>
     <v>       0.00000000      -0.00000000       4.53425857 </v>
    </varray>
    <i name="volume">     80.86492407 </i>
    <varray name="rec_basis" >
     <v>       0.21662891      -0.12941949      -0.00000000 </v>
     <v>       0.21662891       0.12941949       0.00000000 </v>
     <v>      -0.00000000      -0.00000000       0.22054322 </v>
    </varray>
   </crystal>
   <varray name="positions" >
    <v>       0.65586494       0.34413506       0.41613292 </v>
    <v>       0.84413506       0.15586494       0.91613292 </v>
    <v>       0.34413506       0.65586494       0.58386708 </v>
    <v>       0.15586494       0.84413506       0.08386708 </v>
   </varray>
  </structure>
  <varray name="forces" >
   <v>       0.00000000       0.00127417      -0.00017274 </v>
   <v>       0.00000000      -0.00127417      -0.00017274 </v>
   <v>      -0.00000000      -0.00127417       0.00017274 </v>
   <v>      -0.00000000       0.00127417       0.00017274 </v>
  </varray>
  <varray name="stress" >
   <v>      -1.75886783       0.00000000       0.00000000 </v>
   <v>       0.00000000      -0.74538243       0.00000000 </v>
   <v>       0.00000000      -0.00000000      -1.14622451 </v>
  </varray>
  <energy>
   <i name="e_fr_energy">    -11.61453060 </i>
   <i name="e_wo_entrp">    -11.61139616 </i>
   <i name="e_0_energy">    -11.61296338 </i>
  </energy>
  <time name="totalsc">    2.95    2.99</time>
 </calculation>
 <calculation>
  <scstep>
   <time name="dav">    0.19    0.19</time>
   <time name="total">    0.33    0.33</time>
   <energy>
    <i name="alphaZ">    267.45040280 </i>
    <i name="ewald">  -4978.66466874 </i>
    <i name="hartreedc">  -2336.29723964 </i>
    <i name="XCdc">    174.85225553 </i>
    <i name="pawpsdc">   6881.75734505 </i>
    <i name="pawaedc">  -8216.85249946 </i>
    <i name="eentropy">     -0.00311407 </i>
    <i name="bandstr">   -399.13611340 </i>
    <i name="atom">   8595.27849819 </i>
    <i name="e_fr_energy">    -11.61513375 </i>
    <i name="e_wo_entrp">    -11.61201968 </i>
    <i name="e_0_energy">    -11.61357671 </i>
   </energy>
  </scstep>
  <scstep>
   <time name="dav">    0.19    0.20</time>
   <time name="total">    0.33    0.34</time>
   <energy>
    <i name="e_fr_energy">    -11.61467776 </i>
    <i name="e_wo_entrp">    -11.61155917 </i>
    <i name="e_0_energy">    -11.61311846 </i>
   </energy>
  </scstep>
  <scstep>
   <time name="dav">    0.20    0.20</time>
   <time name="total">    0.34    0.34</time>
   <energy>
    <i name="e_fr_energy">    -11.61455810 </i>
    <i name="e_wo_entrp">    -11.61143138 </i>
    <i name="e_0_energy">    -11.61299474 </i>
   </energy>
  </scstep>
  <scstep>
   <time name="dav">    0.18    0.18</time>
   <time name="total">    0.32    0.32</time>
   <energy>
    <i name="e_fr_energy">    -11.61454651 </i>
    <i name="e_wo_entrp">    -11.61141542 </i>
    <i name="e_0_energy">    -11.61298097 </i>
   </energy>
  </scstep>
  <scstep>
   <time name="dav">    0.19    0.19</time>
   <time name="total">    0.33    0.34</time>
   <energy>
    <i name="e_fr_energy">    -11.61454676 </i>
    <i name="e_wo_entrp">    -11.61141595 </i>
    <i name="e_0_energy">    -11.61298136 </i>
   </energy>
  </scstep>
  <scstep>
   <time name="dav">    0.18    0.18</time>
   <time name="total">    0.31    0.31</time>
   <energy>
    <i name="alphaZ">    267.45040280 </i>
    <i name="ewald">  -4978.66466874 </i>
    <i name="hartreedc">  -2334.53652204 </i>
    <i name="XCdc">    174.78110408 </i>
    <i name="pawpsdc">   6883.11452178 </i>
    <i name="pawaedc">  -8218.21152456 </i>
    <i name="eentropy">     -0.00313069 </i>
    <i name="bandstr">   -400.82322754 </i>
    <i name="atom">   8595.27849819 </i>
    <i name="e_fr_energy">    -11.61454671 </i>
    <i name="e_wo_entrp">    -11.61141602 </i>
    <i name="e_0_energy">    -11.61298137 </i>
   </energy>
  </scstep>
  <structure>
   <crystal>
    <varray name="basis" >
     <v>       2.30673516      -3.86192390      -0.00000000 </v>
     <v>       2.30673516       3.86192390       0.00000000 </v>
     <v>       0.00000000      -0.00000000       4.53418999 </v>
    </varray>
    <i name="volume">     80.78507960 </i>
    <varray name="rec_basis" >
     <v>       0.21675657      -0.12946915      -0.00000000 </v>
     <v>       0.21675657       0.12946915       0.00000000 </v>
     <v>      -0.00000000      -0.00000000       0.22054656 </v>
    </varray>
   </crystal>
   <varray name="positions" >
    <v>       0.65590970       0.34409030       0.41610981 </v>
    <v>       0.84409030       0.15590970       0.91610981 </v>
    <v>       0.34409030       0.65590970       0.58389019 </v>
    <v>       0.15590970       0.84409030       0.08389019 </v>
   </varray>
  </structure>
  <varray name="forces" >
   <v>      -0.00000000       0.00639385       0.00095901 </v>
   <v>       0.00000000      -0.00639385       0.00095901 </v>
   <v>       0.00000000      -0.00639385      -0.00095901 </v>
   <v>      -0.00000000       0.00639385      -0.00095901 </v>
  </varray>
  <varray name="stress" >
   <v>      -0.08374308       0.00000000       0.00000000 </v>
   <v>       0.00000000       0.58811516      -0.00000000 </v>
   <v>       0.00000000       0.00000000       0.14077791 </v>
  </varray>
  <energy>
   <i name="e_fr_energy">    -11.61454671 </i>
   <i name="e_wo_entrp">    -11.61141602 </i>
   <i name="e_0_energy">    -11.61298137 </i>
  </energy>
  <time name="totalsc">    2.59    2.63</time>
 </calculation>
 <calculation>
  <scstep>
   <time name="dav">    0.19    0.19</time>
   <time name="total">    0.33    0.33</time>
   <energy>
    <i name="alphaZ">    267.39317366 </i>
    <i name="ewald">  -4978.33472152 </i>
    <i name="hartreedc">  -2334.34351612 </i>
    <i name="XCdc">    174.76368181 </i>
    <i name="pawpsdc">   6883.12248705 </i>
    <i name="pawaedc">  -8218.22315953 </i>
    <i name="eentropy">     -0.00313503 </i>
    <i name="bandstr">   -401.26788303 </i>
    <i name="atom">   8595.27849819 </i>
    <i name="e_fr_energy">    -11.61457453 </i>
    <i name="e_wo_entrp">    -11.61143950 </i>
    <i name="e_0_energy">    -11.61300702 </i>
   </energy>
  </scstep>
  <scstep>
   <time name="dav">    0.19    0.20</time>
   <time name="total">    0.34    0.34</time>
   <energy>
    <i name="e_fr_energy">    -11.61455292 </i>
    <i name="e_wo_entrp">    -11.61141897 </i>
    <i name="e_0_energy">    -11.61298594 </i>
   </energy>
  </scstep>
  <scstep>
   <time name="dav">    0.20    0.20</time>
   <time name="total">    0.34    0.34</time>
   <energy>
    <i name="e_fr_energy">    -11.61454703 </i>
    <i name="e_wo_entrp">    -11.61141488 </i>
    <i name="e_0_energy">    -11.61298095 </i>
   </energy>
  </scstep>
  <scstep>
   <time name="dav">    0.18    0.18</time>
   <time name="total">    0.32    0.32</time>
   <energy>
    <i name="e_fr_energy">    -11.61454624 </i>
    <i name="e_wo_entrp">    -11.61141504 </i>
    <i name="e_0_energy">    -11.61298064 </i>
   </energy>
  </scstep>
  <scstep>
   <time name="dav">    0.12    0.12</time>
   <time name="total">    0.25    0.26</time>
   <energy>
    <i name="alphaZ">    267.39317366 </i>
    <i name="ewald">  -4978.33472152 </i>
    <i name="hartreedc">  -2334.72643270 </i>
    <i name="XCdc">    174.77916986 </i>
    <i name="pawpsdc">   6882.82576804 </i>
    <i name="pawaedc">  -8217.93115646 </i>
    <i name="eentropy">     -0.00313125 </i>
    <i name="bandstr">   -400.89571409 </i>
    <i name="atom">   8595.27849819 </i>
    <i name="e_fr_energy">    -11.61454627 </i>
    <i name="e_wo_entrp">    -11.61141502 </i>
    <i name="e_0_energy">    -11.61298064 </i>
   </energy>
  </scstep>
  <structure>
   <crystal>
    <varray name="basis" >
     <v>       2.30702959      -3.86224483      -0.00000000 </v>
     <v>       2.30702959       3.86224483       0.00000000 </v>
     <v>       0.00000000      -0.00000000       4.53420484 </v>
    </varray>
    <i name="volume">     80.80236972 </i>
    <varray name="rec_basis" >
     <v>       0.21672891      -0.12945839      -0.00000000 </v>
     <v>       0.21672891       0.12945839       0.00000000 </v>
     <v>       0.00000000      -0.00000000       0.22054584 </v>
    </varray>
   </crystal>
   <varray name="positions" >
    <v>       0.65590001       0.34409999       0.41611481 </v>
    <v>       0.84409999       0.15590001       0.91611481 </v>
    <v>       0.34409999       0.65590001       0.58388519 </v>
    <v>       0.15590001       0.84409999       0.08388519 </v>
   </varray>
  </structure>
  <varray name="forces" >
   <v>      -0.00000000       0.00459900       0.00049627 </v>
   <v>       0.00000000      -0.00459900       0.00049627 </v>
   <v>       0.00000000      -0.00459900      -0.00049627 </v>
   <v>      -0.00000000       0.00459900      -0.00049627 </v>
  </varray>
  <varray name="stress" >
   <v>      -0.91928821       0.00000000       0.00000000 </v>
   <v>       0.00000000      -0.15768295      -0.00000000 </v>
   <v>       0.00000000      -0.00000000      -0.59431891 </v>
  </varray>
  <energy>
   <i name="e_fr_energy">    -11.61454627 </i>
   <i name="e_wo_entrp">    -11.61141502 </i>
   <i name="e_0_energy">    -11.61298064 </i>
  </energy>
  <time name="totalsc">    2.20    2.23</time>
 </calculation>
 <calculation>
  <scstep>
   <time name="dav">    0.19    0.19</time>
   <time name="total">    0.33    0.34</time>
   <energy>
    <i name="alphaZ">    267.42585021 </i>
    <i name="ewald">  -4978.52312241 </i>
    <i name="hartreedc">  -2334.83363650 </i>
    <i name="XCdc">    174.78899870 </i>
    <i name="pawpsdc">   6882.82652230 </i>
    <i name="pawaedc">  -8217.92910052 </i>
    <i name="eentropy">     -0.00312883 </i>
    <i name="bandstr">   -400.64543674 </i>
    <i name="atom">   8595.27849819 </i>
    <i name="e_fr_energy">    -11.61455559 </i>
    <i name="e_wo_entrp">    -11.61142676 </i>
    <i name="e_0_energy">    -11.61299118 </i>
   </energy>
  </scstep>
  <scstep>
   <time name="dav">    0.20    0.20</time>
   <time name="total">    0.34    0.34</time>
   <energy>
    <i name="e_fr_energy">    -11.61454853 </i>
    <i name="e_wo_entrp">    -11.61141911 </i>
    <i name="e_0_energy">    -11.61298382 </i>
   </energy>
  </scstep>
  <scstep>
   <time name="dav">    0.20    0.20</time>
   <time name="total">    0.34    0.34</time>
   <energy>
    <i name="e_fr_energy">    -11.61454681 </i>
    <i name="e_wo_entrp">    -11.61141638 </i>
    <i name="e_0_energy">    -11.61298159 </i>
   </energy>
  </scstep>
  <scstep>
   <time name="dav">    0.17    0.17</time>
   <time name="total">    0.30    0.30</time>
   <energy>
    <i name="alphaZ">    267.42585021 </i>
    <i name="ewald">  -4978.52312241 </i>
    <i name="hartreedc">  -2334.61953394 </i>
    <i name="XCdc">    174.78034052 </i>
    <i name="pawpsdc">   6882.99692568 </i>
    <i name="pawaedc">  -8218.09833797 </i>
    <i name="eentropy">     -0.00313097 </i>
    <i name="bandstr">   -400.85203604 </i>
    <i name="atom">   8595.27849819 </i>
    <i name="e_fr_energy">    -11.61454673 </i>
    <i name="e_wo_entrp">    -11.61141575 </i>
    <i name="e_0_energy">    -11.61298124 </i>
   </energy>
  </scstep>
  <structure>
   <crystal>
    <varray name="basis" >
     <v>       2.30686147      -3.86206157      -0.00000000 </v>
     <v>       2.30686147       3.86206157       0.00000000 </v>
     <v>       0.00000000      -0.00000000       4.53419636 </v>
    </varray>
    <i name="volume">     80.79249655 </i>
    <varray name="rec_basis" >
     <v>       0.21674470      -0.12946453      -0.00000000 </v>
     <v>       0.21674470       0.12946453       0.00000000 </v>
     <v>       0.00000000      -0.00000000       0.22054625 </v>
    </varray>
   </crystal>
   <varray name="positions" >
    <v>       0.65590554       0.34409446       0.41611195 </v>
    <v>       0.84409446       0.15590554       0.91611195 </v>
    <v>       0.34409446       0.65590554       0.58388805 </v>
    <v>       0.15590554       0.84409446       0.08388805 </v>
   </varray>
  </structure>
  <varray name="forces" >
   <v>       0.00000000       0.00583740       0.00083772 </v>
   <v>       0.00000000      -0.00583740       0.00083772 </v>
   <v>       0.00000000      -0.00583740      -0.00083772 </v>
   <v>      -0.00000000       0.00583740      -0.00083772 </v>
  </varray>
  <varray name="stress" >
   <v>      -0.56055133       0.00000000       0.00000000 </v>
   <v>       0.00000000       0.16133877       0.00000000 </v>
   <v>       0.00000000       0.00000000      -0.30650517 </v>
  </varray>
  <energy>
   <i name="e_fr_energy">    -11.61454673 </i>
   <i name="e_wo_entrp">    -11.61141575 </i>
   <i name="e_0_energy">    -11.61298124 </i>
  </energy>
  <time name="totalsc">    1.93    1.96</time>
 </calculation>
 <calculation>
  <scstep>
   <time name="dav">    0.19    0.20</time>
   <time name="total">    0.33    0.34</time>
   <energy>
    <i name="alphaZ">    267.43142526 </i>
    <i name="ewald">  -4978.55526400 </i>
    <i name="hartreedc">  -2334.63442515 </i>
    <i name="XCdc">    174.78188011 </i>
    <i name="pawpsdc">   6882.99302188 </i>
    <i name="pawaedc">  -8218.09315566 </i>
    <i name="eentropy">     -0.00313053 </i>
    <i name="bandstr">   -400.81339706 </i>
    <i name="atom">   8595.27849819 </i>
    <i name="e_fr_energy">    -11.61454697 </i>
    <i name="e_wo_entrp">    -11.61141644 </i>
    <i name="e_0_energy">    -11.61298170 </i>
   </energy>
  </scstep>
  <scstep>
   <time name="dav">    0.16    0.16</time>
   <time name="total">    0.30    0.30</time>
   <energy>
    <i name="e_fr_energy">    -11.61454677 </i>
    <i name="e_wo_entrp">    -11.61141615 </i>
    <i name="e_0_energy">    -11.61298146 </i>
   </energy>
  </scstep>
  <scstep>
   <time name="dav">    0.12    0.12</time>
   <time name="total">    0.25    0.25</time>
   <energy>
    <i name="alphaZ">    267.43142526 </i>
    <i name="ewald">  -4978.55526400 </i>
    <i name="hartreedc">  -2334.60149926 </i>
    <i name="XCdc">    174.78055143 </i>
    <i name="pawpsdc">   6883.01302994 </i>
    <i name="pawaedc">  -8218.11137871 </i>
    <i name="eentropy">     -0.00313080 </i>
    <i name="bandstr">   -400.84677879 </i>
    <i name="atom">   8595.27849819 </i>
    <i name="e_fr_energy">    -11.61454674 </i>
    <i name="e_wo_entrp">    -11.61141594 </i>
    <i name="e_0_energy">    -11.61298134 </i>
   </energy>
  </scstep>
  <structure>
   <crystal>
    <varray name="basis" >
     <v>       2.30683279      -3.86203031      -0.00000000 </v>
     <v>       2.30683279       3.86203031       0.00000000 </v>
     <v>       0.00000000      -0.00000000       4.53419492 </v>
    </varray>
    <i name="volume">     80.79081230 </i>
    <varray name="rec_basis" >
     <v>       0.21674740      -0.12946558      -0.00000000 </v>
     <v>       0.21674740       0.12946558       0.00000000 </v>
     <v>       0.00000000      -0.00000000       0.22054632 </v>
    </varray>
   </crystal>
   <varray name="positions" >
    <v>       0.65590649       0.34409351       0.41611147 </v>
    <v>       0.84409351       0.15590649       0.91611147 </v>
    <v>       0.34409351       0.65590649       0.58388853 </v>
    <v>       0.15590649       0.84409351       0.08388853 </v>
   </varray>
  </structure>
  <varray name="forces" >
   <v>       0.00000000       0.00602462       0.00087615 </v>
   <v>       0.00000000      -0.00602462       0.00087615 </v>
   <v>      -0.00000000      -0.00602462      -0.00087615 </v>
   <v>      -0.00000000       0.00602462      -0.00087615 </v>
  </varray>
  <varray name="stress" >
   <v>      -0.29216215       0.00000000       0.00000000 </v>
   <v>       0.00000000       0.43917276       0.00000000 </v>
   <v>       0.00000000       0.00000000       0.00624449 </v>
  </varray>
  <energy>
   <i name="e_fr_energy">    -11.61454674 </i>
   <i name="e_wo_entrp">    -11.61141594 </i>
   <i name="e_0_energy">    -11.61298134 </i>
  </energy>
  <time name="totalsc">    1.50    1.53</time>
 </calculation>
 <calculation>
  <scstep>
   <time name="dav">    0.19    0.19</time>
   <time name="total">    0.33    0.33</time>
   <energy>
    <i name="alphaZ">    267.42800391 </i>
    <i name="ewald">  -4978.53553914 </i>
    <i name="hartreedc">  -2334.58649991 </i>
    <i name="XCdc">    174.77937437 </i>
    <i name="pawpsdc">   6883.02230531 </i>
    <i name="pawaedc">  -8218.12446604 </i>
    <i name="eentropy">     -0.00313113 </i>
    <i name="bandstr">   -400.87309241 </i>
    <i name="atom">   8595.27849819 </i>
    <i name="e_fr_energy">    -11.61454685 </i>
    <i name="e_wo_entrp">    -11.61141572 </i>
    <i name="e_0_energy">    -11.61298128 </i>
   </energy>
  </scstep>
  <scstep>
   <time name="dav">    0.11    0.11</time>
   <time name="total">    0.25    0.25</time>
   <energy>
    <i name="alphaZ">    267.42800391 </i>
    <i name="ewald">  -4978.53553914 </i>
[...]
        <r>  0.0000  0.0000  0.1859 </r>
        <r>  0.0000  0.0005  0.3053 </r>
        <r>  0.0000  0.0000  0.1859 </r>
       </set>
       <set comment="band 7">
        <r>  0.0000  0.0001  0.2048 </r>
        <r>  0.0000  0.0001  0.2886 </r>
        <r>  0.0000  0.0001  0.2048 </r>
        <r>  0.0000  0.0001  0.2886 </r>
       </set>
       <set comment="band 8">
        <r>  0.0000  0.0001  0.2624 </r>
        <r>  0.0000  0.0002  0.2314 </r>
        <r>  0.0000  0.0001  0.2624 </r>
        <r>  0.0000  0.0002  0.2314 </r>
       </set>
       <set comment="band 9">
        <r>  0.0008  0.0001  0.2438 </r>
        <r>  0.0002  0.0002  0.2485 </r>
        <r>  0.0008  0.0001  0.2438 </r>
        <r>  0.0002  0.0002  0.2485 </r>
       </set>
       <set comment="band 10">
        <r>  0.0002  0.0001  0.2866 </r>
        <r>  0.0003  0.0001  0.2073 </r>
        <r>  0.0002  0.0001  0.2866 </r>
        <r>  0.0003  0.0001  0.2073 </r>
       </set>
       <set comment="band 11">
        <r>  0.0005  0.0001  0.1630 </r>
        <r>  0.0011  0.0001  0.3299 </r>
        <r>  0.0005  0.0001  0.1630 </r>
        <r>  0.0011  0.0001  0.3299 </r>
       </set>
       <set comment="band 12">
        <r>  0.0010  0.0001  0.3295 </r>
        <r>  0.0005  0.0001  0.1635 </r>
        <r>  0.0010  0.0001  0.3295 </r>
        <r>  0.0005  0.0001  0.1635 </r>
       </set>
       <set comment="band 13">
        <r>  0.0000  0.0002  0.2531 </r>
        <r>  0.0000  0.0001  0.2422 </r>
        <r>  0.0000  0.0002  0.2531 </r>
        <r>  0.0000  0.0001  0.2422 </r>
       </set>
       <set comment="band 14">
        <r>  0.0000  0.0001  0.2164 </r>
        <r>  0.0000  0.0002  0.2790 </r>
        <r>  0.0000  0.0001  0.2164 </r>
        <r>  0.0000  0.0002  0.2790 </r>
       </set>
       <set comment="band 15">
        <r>  0.0005  0.0001  0.2349 </r>
        <r>  0.0002  0.0002  0.2602 </r>
        <r>  0.0005  0.0001  0.2349 </r>
        <r>  0.0002  0.0002  0.2602 </r>
       </set>
       <set comment="band 16">
        <r>  0.0002  0.0001  0.2339 </r>
        <r>  0.0003  0.0000  0.2620 </r>
        <r>  0.0002  0.0001  0.2339 </r>
        <r>  0.0003  0.0000  0.2620 </r>
       </set>
       <set comment="band 17">
        <r>  0.0000  0.0000  0.3641 </r>
        <r>  0.0000  0.0000  0.1336 </r>
        <r>  0.0000  0.0000  0.3641 </r>
        <r>  0.0000  0.0000  0.1336 </r>
       </set>
       <set comment="band 18">
        <r>  0.0000  0.0000  0.1555 </r>
        <r>  0.0000  0.0000  0.3426 </r>
        <r>  0.0000  0.0000  0.1555 </r>
        <r>  0.0000  0.0000  0.3426 </r>
       </set>
       <set comment="band 19">
        <r>  0.0002  0.0001  0.1388 </r>
        <r>  0.0002  0.0002  0.3578 </r>
        <r>  0.0002  0.0001  0.1388 </r>
        <r>  0.0002  0.0002  0.3578 </r>
       </set>
       <set comment="band 20">
        <r>  0.0001  0.0002  0.3568 </r>
        <r>  0.0001  0.0001  0.1404 </r>
        <r>  0.0001  0.0002  0.3568 </r>
        <r>  0.0001  0.0001  0.1404 </r>
       </set>
       <set comment="band 21">
        <r>  0.1170  0.0171  0.0043 </r>
        <r>  0.1287  0.0157  0.0037 </r>
        <r>  0.1170  0.0171  0.0043 </r>
        <r>  0.1287  0.0157  0.0037 </r>
       </set>
       <set comment="band 22">
        <r>  0.1324  0.0209  0.0049 </r>
        <r>  0.1108  0.0212  0.0060 </r>
        <r>  0.1324  0.0209  0.0049 </r>
        <r>  0.1108  0.0212  0.0060 </r>
       </set>
       <set comment="band 23">
        <r>  0.0819  0.0385  0.0024 </r>
        <r>  0.0995  0.0584  0.0064 </r>
        <r>  0.0819  0.0385  0.0024 </r>
        <r>  0.0995  0.0584  0.0064 </r>
       </set>
       <set comment="band 24">
        <r>  0.1147  0.0494  0.0093 </r>
        <r>  0.1164  0.0296  0.0036 </r>
        <r>  0.1147  0.0494  0.0093 </r>
        <r>  0.1164  0.0296  0.0036 </r>
       </set>
       <set comment="band 25">
        <r>  0.0000  0.1101  0.0099 </r>
        <r>  0.0000  0.1113  0.0095 </r>
        <r>  0.0000  0.1101  0.0099 </r>
        <r>  0.0000  0.1113  0.0095 </r>
       </set>
       <set comment="band 26">
        <r>  0.0444  0.0727  0.0116 </r>
        <r>  0.0313  0.0719  0.0136 </r>
        <r>  0.0444  0.0727  0.0116 </r>
        <r>  0.0313  0.0719  0.0136 </r>
       </set>
       <set comment="band 27">
        <r>  0.0000  0.1125  0.0137 </r>
        <r>  0.0000  0.1103  0.0143 </r>
        <r>  0.0000  0.1125  0.0137 </r>
        <r>  0.0000  0.1103  0.0143 </r>
       </set>
       <set comment="band 28">
        <r>  0.0527  0.0698  0.0119 </r>
        <r>  0.0588  0.0726  0.0107 </r>
        <r>  0.0527  0.0698  0.0119 </r>
        <r>  0.0588  0.0726  0.0107 </r>
       </set>
       <set comment="band 29">
        <r>  0.0960  0.1321  0.0104 </r>
        <r>  0.0368  0.0799  0.0100 </r>
        <r>  0.0960  0.1321  0.0104 </r>
        <r>  0.0368  0.0799  0.0100 </r>
       </set>
       <set comment="band 30">
        <r>  0.0215  0.0760  0.0105 </r>
        <r>  0.0848  0.1651  0.0113 </r>
        <r>  0.0215  0.0760  0.0105 </r>
        <r>  0.0848  0.1651  0.0113 </r>
       </set>
       <set comment="band 31">
        <r>  0.0000  0.0784  0.0335 </r>
        <r>  0.0000  0.0940  0.0353 </r>
        <r>  0.0000  0.0784  0.0335 </r>
        <r>  0.0000  0.0940  0.0353 </r>
       </set>
       <set comment="band 32">
        <r>  0.0044  0.1338  0.0284 </r>
        <r>  0.0207  0.0537  0.0270 </r>
        <r>  0.0044  0.1338  0.0284 </r>
        <r>  0.0207  0.0537  0.0270 </r>
       </set>
      </set>
      <set comment="kpoint 99">
       <set comment="band 1">
        <r>  0.0000  0.0001  0.2458 </r>
        <r>  0.0000  0.0001  0.2458 </r>
        <r>  0.0000  0.0001  0.2458 </r>
        <r>  0.0000  0.0001  0.2458 </r>
       </set>
       <set comment="band 2">
        <r>  0.0000  0.0001  0.2457 </r>
        <r>  0.0000  0.0001  0.2457 </r>
        <r>  0.0000  0.0001  0.2457 </r>
        <r>  0.0000  0.0001  0.2457 </r>
       </set>
       <set comment="band 3">
        <r>  0.0001  0.0002  0.2456 </r>
        <r>  0.0001  0.0002  0.2456 </r>
        <r>  0.0001  0.0002  0.2456 </r>
        <r>  0.0001  0.0002  0.2456 </r>
       </set>
       <set comment="band 4">
        <r>  0.0002  0.0002  0.2455 </r>
        <r>  0.0002  0.0002  0.2455 </r>
        <r>  0.0002  0.0002  0.2455 </r>
        <r>  0.0002  0.0002  0.2455 </r>
       </set>
       <set comment="band 5">
        <r>  0.0004  0.0001  0.2459 </r>
        <r>  0.0004  0.0001  0.2459 </r>
        <r>  0.0004  0.0001  0.2459 </r>
        <r>  0.0004  0.0001  0.2459 </r>
       </set>
       <set comment="band 6">
        <r>  0.0003  0.0002  0.2457 </r>
        <r>  0.0003  0.0002  0.2457 </r>
        <r>  0.0003  0.0002  0.2457 </r>
        <r>  0.0003  0.0002  0.2457 </r>
       </set>
       <set comment="band 7">
        <r>  0.0001  0.0001  0.2465 </r>
        <r>  0.0001  0.0001  0.2465 </r>
        <r>  0.0001  0.0001  0.2465 </r>
        <r>  0.0001  0.0001  0.2465 </r>
       </set>
       <set comment="band 8">
        <r>  0.0001  0.0001  0.2467 </r>
        <r>  0.0001  0.0001  0.2467 </r>
        <r>  0.0001  0.0001  0.2467 </r>
        <r>  0.0001  0.0001  0.2467 </r>
       </set>
       <set comment="band 9">
        <r>  0.0006  0.0001  0.2461 </r>
        <r>  0.0006  0.0001  0.2461 </r>
        <r>  0.0006  0.0001  0.2461 </r>
        <r>  0.0006  0.0001  0.2461 </r>
       </set>
       <set comment="band 10">
        <r>  0.0002  0.0000  0.2472 </r>
        <r>  0.0002  0.0000  0.2472 </r>
        <r>  0.0002  0.0000  0.2472 </r>
        <r>  0.0002  0.0000  0.2472 </r>
       </set>
       <set comment="band 11">
        <r>  0.0005  0.0001  0.2467 </r>
        <r>  0.0005  0.0001  0.2467 </r>
        <r>  0.0005  0.0001  0.2467 </r>
        <r>  0.0005  0.0001  0.2467 </r>
       </set>
       <set comment="band 12">
        <r>  0.0011  0.0001  0.2457 </r>
        <r>  0.0011  0.0001  0.2457 </r>
        <r>  0.0011  0.0001  0.2457 </r>
        <r>  0.0011  0.0001  0.2457 </r>
       </set>
       <set comment="band 13">
        <r>  0.0000  0.0002  0.2476 </r>
        <r>  0.0000  0.0002  0.2476 </r>
        <r>  0.0000  0.0002  0.2476 </r>
        <r>  0.0000  0.0002  0.2476 </r>
       </set>
       <set comment="band 14">
        <r>  0.0001  0.0001  0.2477 </r>
        <r>  0.0001  0.0001  0.2477 </r>
        <r>  0.0001  0.0001  0.2477 </r>
        <r>  0.0001  0.0001  0.2477 </r>
       </set>
       <set comment="band 15">
        <r>  0.0002  0.0001  0.2477 </r>
        <r>  0.0002  0.0001  0.2477 </r>
        <r>  0.0002  0.0001  0.2477 </r>
        <r>  0.0002  0.0001  0.2477 </r>
       </set>
       <set comment="band 16">
        <r>  0.0001  0.0001  0.2479 </r>
        <r>  0.0001  0.0001  0.2479 </r>
        <r>  0.0001  0.0001  0.2479 </r>
        <r>  0.0001  0.0001  0.2479 </r>
       </set>
       <set comment="band 17">
        <r>  0.0001  0.0000  0.2488 </r>
        <r>  0.0001  0.0000  0.2488 </r>
        <r>  0.0001  0.0000  0.2488 </r>
        <r>  0.0001  0.0000  0.2488 </r>
       </set>
       <set comment="band 18">
        <r>  0.0001  0.0000  0.2489 </r>
        <r>  0.0001  0.0000  0.2489 </r>
        <r>  0.0001  0.0000  0.2489 </r>
        <r>  0.0001  0.0000  0.2489 </r>
       </set>
       <set comment="band 19">
        <r>  0.0001  0.0001  0.2485 </r>
        <r>  0.0001  0.0001  0.2485 </r>
        <r>  0.0001  0.0001  0.2485 </r>
        <r>  0.0001  0.0001  0.2485 </r>
       </set>
       <set comment="band 20">
        <r>  0.0001  0.0001  0.2488 </r>
        <r>  0.0001  0.0001  0.2488 </r>
        <r>  0.0001  0.0001  0.2488 </r>
        <r>  0.0001  0.0001  0.2488 </r>
       </set>
       <set comment="band 21">
        <r>  0.1238  0.0204  0.0063 </r>
        <r>  0.1238  0.0204  0.0063 </r>
        <r>  0.1238  0.0204  0.0063 </r>
        <r>  0.1238  0.0204  0.0063 </r>
       </set>
       <set comment="band 22">
        <r>  0.1280  0.0203  0.0077 </r>
        <r>  0.1280  0.0203  0.0077 </r>
        <r>  0.1280  0.0203  0.0077 </r>
        <r>  0.1280  0.0203  0.0077 </r>
       </set>
       <set comment="band 23">
        <r>  0.0836  0.0474  0.0021 </r>
        <r>  0.0836  0.0474  0.0021 </r>
        <r>  0.0836  0.0474  0.0021 </r>
        <r>  0.0836  0.0474  0.0021 </r>
       </set>
       <set comment="band 24">
        <r>  0.1205  0.0299  0.0053 </r>
        <r>  0.1205  0.0299  0.0053 </r>
        <r>  0.1205  0.0299  0.0053 </r>
        <r>  0.1205  0.0299  0.0053 </r>
       </set>
       <set comment="band 25">
        <r>  0.0070  0.0937  0.0065 </r>
        <r>  0.0070  0.0937  0.0065 </r>
        <r>  0.0070  0.0937  0.0065 </r>
        <r>  0.0070  0.0937  0.0065 </r>
       </set>
       <set comment="band 26">
        <r>  0.0270  0.0857  0.0090 </r>
        <r>  0.0270  0.0857  0.0090 </r>
        <r>  0.0270  0.0857  0.0090 </r>
        <r>  0.0270  0.0857  0.0090 </r>
       </set>
       <set comment="band 27">
        <r>  0.0312  0.0867  0.0141 </r>
        <r>  0.0312  0.0867  0.0141 </r>
        <r>  0.0312  0.0867  0.0141 </r>
        <r>  0.0312  0.0867  0.0141 </r>
       </set>
       <set comment="band 28">
        <r>  0.0268  0.0956  0.0153 </r>
        <r>  0.0268  0.0956  0.0153 </r>
        <r>  0.0268  0.0956  0.0153 </r>
        <r>  0.0268  0.0956  0.0153 </r>
       </set>
       <set comment="band 29">
        <r>  0.0666  0.1166  0.0056 </r>
        <r>  0.0666  0.1166  0.0056 </r>
        <r>  0.0666  0.1166  0.0056 </r>
        <r>  0.0666  0.1166  0.0056 </r>
       </set>
       <set comment="band 30">
        <r>  0.0070  0.1395  0.0222 </r>
        <r>  0.0070  0.1395  0.0222 </r>
        <r>  0.0070  0.1395  0.0222 </r>
        <r>  0.0070  0.1395  0.0222 </r>
       </set>
       <set comment="band 31">
        <r>  0.0201  0.1268  0.0182 </r>
        <r>  0.0201  0.1268  0.0182 </r>
        <r>  0.0201  0.1268  0.0182 </r>
        <r>  0.0201  0.1268  0.0182 </r>
       </set>
       <set comment="band 32">
        <r>  0.0448  0.1232  0.0089 </r>
        <r>  0.0448  0.1232  0.0089 </r>
        <r>  0.0448  0.1232  0.0089 </r>
        <r>  0.0448  0.1232  0.0089 </r>
       </set>
      </set>
      <set comment="kpoint 100">
       <set comment="band 1">
        <r>  0.0000  0.0001  0.2603 </r>
        <r>  0.0000  0.0001  0.2311 </r>
        <r>  0.0000  0.0001  0.2603 </r>
        <r>  0.0000  0.0001  0.2311 </r>
       </set>
       <set comment="band 2">
        <r>  0.0001  0.0001  0.2293 </r>
        <r>  0.0000  0.0001  0.2620 </r>
        <r>  0.0001  0.0001  0.2293 </r>
        <r>  0.0000  0.0001  0.2620 </r>
       </set>
       <set comment="band 3">
        <r>  0.0003  0.0003  0.2141 </r>
        <r>  0.0003  0.0002  0.2773 </r>
        <r>  0.0003  0.0003  0.2141 </r>
        <r>  0.0003  0.0002  0.2773 </r>
       </set>
       <set comment="band 4">
        <r>  0.0000  0.0000  0.2238 </r>
        <r>  0.0000  0.0002  0.2677 </r>
        <r>  0.0000  0.0000  0.2238 </r>
        <r>  0.0000  0.0002  0.2677 </r>
       </set>
       <set comment="band 5">
        <r>  0.0005  0.0002  0.2775 </r>
        <r>  0.0007  0.0002  0.2137 </r>
        <r>  0.0005  0.0002  0.2775 </r>
        <r>  0.0007  0.0002  0.2137 </r>
       </set>
       <set comment="band 6">
        <r>  0.0000  0.0004  0.2806 </r>
        <r>  0.0000  0.0001  0.2106 </r>
        <r>  0.0000  0.0004  0.2806 </r>
        <r>  0.0000  0.0001  0.2106 </r>
       </set>
       <set comment="band 7">
        <r>  0.0000  0.0001  0.2298 </r>
        <r>  0.0000  0.0001  0.2637 </r>
        <r>  0.0000  0.0001  0.2298 </r>
        <r>  0.0000  0.0001  0.2637 </r>
       </set>
       <set comment="band 8">
        <r>  0.0000  0.0002  0.2518 </r>
        <r>  0.0000  0.0002  0.2420 </r>
        <r>  0.0000  0.0002  0.2518 </r>
        <r>  0.0000  0.0002  0.2420 </r>
       </set>
       <set comment="band 9">
        <r>  0.0007  0.0001  0.2425 </r>
        <r>  0.0005  0.0001  0.2498 </r>
        <r>  0.0007  0.0001  0.2425 </r>
        <r>  0.0005  0.0001  0.2498 </r>
       </set>
       <set comment="band 10">
        <r>  0.0002  0.0000  0.2658 </r>
        <r>  0.0002  0.0001  0.2287 </r>
        <r>  0.0002  0.0000  0.2658 </r>
        <r>  0.0002  0.0001  0.2287 </r>
       </set>
       <set comment="band 11">
        <r>  0.0006  0.0001  0.1808 </r>
        <r>  0.0011  0.0001  0.3119 </r>
        <r>  0.0006  0.0001  0.1808 </r>
        <r>  0.0011  0.0001  0.3119 </r>
       </set>
       <set comment="band 12">
        <r>  0.0013  0.0001  0.3059 </r>
        <r>  0.0010  0.0001  0.1857 </r>
        <r>  0.0013  0.0001  0.3059 </r>
        <r>  0.0010  0.0001  0.1857 </r>
       </set>
       <set comment="band 13">
        <r>  0.0000  0.0002  0.2540 </r>
        <r>  0.0000  0.0001  0.2413 </r>
        <r>  0.0000  0.0002  0.2540 </r>
        <r>  0.0000  0.0001  0.2413 </r>
       </set>
       <set comment="band 14">
        <r>  0.0000  0.0001  0.2293 </r>
        <r>  0.0000  0.0002  0.2663 </r>
        <r>  0.0000  0.0001  0.2293 </r>
        <r>  0.0000  0.0002  0.2663 </r>
       </set>
       <set comment="band 15">
        <r>  0.0004  0.0001  0.2516 </r>
        <r>  0.0002  0.0002  0.2431 </r>
        <r>  0.0004  0.0001  0.2516 </r>
        <r>  0.0002  0.0002  0.2431 </r>
       </set>
       <set comment="band 16">
        <r>  0.0001  0.0002  0.2377 </r>
        <r>  0.0002  0.0001  0.2580 </r>
        <r>  0.0001  0.0002  0.2377 </r>
        <r>  0.0002  0.0001  0.2580 </r>
       </set>
       <set comment="band 17">
        <r>  0.0000  0.0000  0.2965 </r>
        <r>  0.0000  0.0000  0.2012 </r>
        <r>  0.0000  0.0000  0.2965 </r>
        <r>  0.0000  0.0000  0.2012 </r>
       </set>
       <set comment="band 18">
        <r>  0.0000  0.0000  0.2124 </r>
        <r>  0.0000  0.0000  0.2856 </r>
        <r>  0.0000  0.0000  0.2124 </r>
        <r>  0.0000  0.0000  0.2856 </r>
       </set>
       <set comment="band 19">
        <r>  0.0002  0.0001  0.2125 </r>
        <r>  0.0002  0.0001  0.2843 </r>
        <r>  0.0002  0.0001  0.2125 </r>
        <r>  0.0002  0.0001  0.2843 </r>
       </set>
       <set comment="band 20">
        <r>  0.0001  0.0001  0.2825 </r>
        <r>  0.0001  0.0001  0.2150 </r>
        <r>  0.0001  0.0001  0.2825 </r>
        <r>  0.0001  0.0001  0.2150 </r>
       </set>
       <set comment="band 21">
        <r>  0.1190  0.0193  0.0062 </r>
        <r>  0.1285  0.0191  0.0055 </r>
        <r>  0.1190  0.0193  0.0062 </r>
        <r>  0.1285  0.0191  0.0055 </r>
       </set>
       <set comment="band 22">
        <r>  0.1369  0.0218  0.0067 </r>
        <r>  0.1166  0.0191  0.0082 </r>
        <r>  0.1369  0.0218  0.0067 </r>
        <r>  0.1166  0.0191  0.0082 </r>
       </set>
       <set comment="band 23">
        <r>  0.0753  0.0397  0.0014 </r>
        <r>  0.0897  0.0565  0.0025 </r>
        <r>  0.0753  0.0397  0.0014 </r>
        <r>  0.0897  0.0565  0.0025 </r>
       </set>
       <set comment="band 24">
        <r>  0.1123  0.0428  0.0059 </r>
        <r>  0.1120  0.0285  0.0037 </r>
        <r>  0.1123  0.0428  0.0059 </r>
        <r>  0.1120  0.0285  0.0037 </r>
       </set>
       <set comment="band 25">
        <r>  0.0000  0.1094  0.0089 </r>
        <r>  0.0000  0.1098  0.0088 </r>
        <r>  0.0000  0.1094  0.0089 </r>
        <r>  0.0000  0.1098  0.0088 </r>
       </set>
       <set comment="band 26">
        <r>  0.0485  0.0658  0.0121 </r>
        <r>  0.0436  0.0657  0.0127 </r>
        <r>  0.0485  0.0658  0.0121 </r>
        <r>  0.0436  0.0657  0.0127 </r>
       </set>
       <set comment="band 27">
        <r>  0.0583  0.0673  0.0112 </r>
        <r>  0.0605  0.0682  0.0108 </r>
        <r>  0.0583  0.0673  0.0112 </r>
        <r>  0.0605  0.0682  0.0108 </r>
       </set>
       <set comment="band 28">
        <r>  0.0000  0.1103  0.0134 </r>
        <r>  0.0000  0.1096  0.0136 </r>
        <r>  0.0000  0.1103  0.0134 </r>
        <r>  0.0000  0.1096  0.0136 </r>
       </set>
       <set comment="band 29">
        <r>  0.0757  0.1469  0.0097 </r>
        <r>  0.0379  0.0935  0.0085 </r>
        <r>  0.0757  0.1469  0.0097 </r>
        <r>  0.0379  0.0935  0.0085 </r>
       </set>
       <set comment="band 30">
        <r>  0.0033  0.1038  0.0140 </r>
        <r>  0.0284  0.1933  0.0123 </r>
        <r>  0.0033  0.1038  0.0140 </r>
        <r>  0.0284  0.1933  0.0123 </r>
       </set>
       <set comment="band 31">
        <r>  0.0034  0.1675  0.0146 </r>
        <r>  0.0715  0.0787  0.0258 </r>
        <r>  0.0034  0.1675  0.0146 </r>
        <r>  0.0715  0.0787  0.0258 </r>
       </set>
       <set comment="band 32">
        <r>  0.0000  0.1085  0.0257 </r>
        <r>  0.0000  0.1194  0.0278 </r>
        <r>  0.0000  0.1085  0.0257 </r>
        <r>  0.0000  0.1194  0.0278 </r>
       </set>
      </set>
     </set>
    </set>
   </array>
  </projected>
 </calculation>
 <structure name="finalpos" >
  <crystal>
   <varray name="basis" >
    <v>       2.30614189      -3.86329344      -0.00000000 </v>
    <v>       2.30614189       3.86329344       0.00000000 </v>
    <v>       0.00000000      -0.00000000       4.53326865 </v>
   </varray>
   <i name="volume">     80.77652629 </i>
   <varray name="rec_basis" >
    <v>       0.21681233      -0.12942325      -0.00000000 </v>
    <v>       0.21681233       0.12942325       0.00000000 </v>
    <v>       0.00000000      -0.00000000       0.22059138 </v>
   </varray>
  </crystal>
  <varray name="positions" >
   <v>       0.65585046       0.34414954       0.41612491 </v>
   <v>       0.84414954       0.15585046       0.91612491 </v>
   <v>       0.34414954       0.65585046       0.58387509 </v>
   <v>       0.15585046       0.84414954       0.08387509 </v>
  </varray>
 </structure>
</modeling>
