unknown system                          
           1
     2.216023   -3.798992    0.000000
     2.216023    3.798992    0.000000
     0.000000    0.000000    4.555504
   Ga
     4
Direct configuration=     1
   0.65569572  0.34430428  0.41540139
   0.84430428  0.15569572  0.91540139
   0.34430428  0.65569572  0.58459861
   0.15569572  0.84430428  0.08459861
unknown system                          
           1
     2.265913   -3.859446   -0.000000
     2.265913    3.859446    0.000000
     0.000000   -0.000000    4.610845
   Ga
     4
Direct configuration=     2
   0.65550727  0.34449273  0.41561901
   0.84449273  0.15550727  0.91561901
   0.34449273  0.65550727  0.58438099
   0.15550727  0.84449273  0.08438099
unknown system                          
           1
     2.268165   -3.862175   -0.000000
     2.268165    3.862175    0.000000
     0.000000   -0.000000    4.613343
   Ga
     4
Direct configuration=     3
   0.65549889  0.34450111  0.41562871
   0.84450111  0.15549889  0.91562871
   0.34450111  0.65549889  0.58437129
   0.15549889  0.84450111  0.08437129
unknown system                          
           1
     2.276549   -3.861365   -0.000000
     2.276549    3.861365    0.000000
     0.000000   -0.000000    4.594688
   Ga
     4
Direct configuration=     4
   0.65561823  0.34438177  0.41572979
   0.84438177  0.15561823  0.91572979
   0.34438177  0.65561823  0.58427021
   0.15561823  0.84438177  0.08427021
unknown system                          
           1
     2.301701   -3.858935   -0.000000
     2.301701    3.858935    0.000000
     0.000000   -0.000000    4.538726
   Ga
     4
Direct configuration=     5
   0.65597633  0.34402367  0.41603423
   0.84402367  0.15597633  0.91603423
   0.34402367  0.65597633  0.58396577
   0.15597633  0.84402367  0.08396577
unknown system                          
           1
     2.304464   -3.858668   -0.000000
     2.304464    3.858668    0.000000
     0.000000   -0.000000    4.532579
   Ga
     4
Direct configuration=     6
   0.65601568  0.34398432  0.41606808
   0.84398432  0.15601568  0.91606808
   0.34398432  0.65601568  0.58393192
   0.15601568  0.84398432  0.08393192
unknown system                          
           1
     2.303806   -3.858732   -0.000000
     2.303806    3.858732    0.000000
     0.000000   -0.000000    4.534042
   Ga
     4
Direct configuration=     7
   0.65600631  0.34399369  0.41606001
   0.84399369  0.15600631  0.91606001
   0.34399369  0.65600631  0.58393999
   0.15600631  0.84399369  0.08393999
unknown system                          
           1
     2.308095   -3.863406   -0.000000
     2.308095    3.863406    0.000000
     0.000000   -0.000000    4.534259
   Ga
     4
Direct configuration=     8
   0.65586494  0.34413506  0.41613292
   0.84413506  0.15586494  0.91613292
   0.34413506  0.65586494  0.58386708
   0.15586494  0.84413506  0.08386708
unknown system                          
           1
     2.306735   -3.861924   -0.000000
     2.306735    3.861924    0.000000
     0.000000   -0.000000    4.534190
   Ga
     4
Direct configuration=     9
   0.65590970  0.34409030  0.41610981
   0.84409030  0.15590970  0.91610981
   0.34409030  0.65590970  0.58389019
   0.15590970  0.84409030  0.08389019
unknown system                          
           1
     2.307030   -3.862245   -0.000000
     2.307030    3.862245    0.000000
     0.000000   -0.000000    4.534205
   Ga
     4
Direct configuration=    10
   0.65590001  0.34409999  0.41611481
   0.84409999  0.15590001  0.91611481
   0.34409999  0.65590001  0.58388519
   0.15590001  0.84409999  0.08388519
unknown system                          
           1
     2.306861   -3.862062   -0.000000
     2.306861    3.862062    0.000000
     0.000000   -0.000000    4.534196
   Ga
     4
Direct configuration=    11
   0.65590554  0.34409446  0.41611195
   0.84409446  0.15590554  0.91611195
   0.34409446  0.65590554  0.58388805
   0.15590554  0.84409446  0.08388805
unknown system                          
           1
     2.306833   -3.862030   -0.000000
     2.306833    3.862030    0.000000
     0.000000   -0.000000    4.534195
   Ga
     4
Direct configuration=    12
   0.65590649  0.34409351  0.41611147
   0.84409351  0.15590649  0.91611147
   0.34409351  0.65590649  0.58388853
   0.15590649  0.84409351  0.08388853
unknown system                          
           1
     2.306850   -3.862049   -0.000000
     2.306850    3.862049    0.000000
     0.000000   -0.000000    4.534196
   Ga
     4
Direct configuration=    13
   0.65590591  0.34409409  0.41611177
   0.84409409  0.15590591  0.91611177
   0.34409409  0.65590591  0.58388823
   0.15590591  0.84409409  0.08388823
unknown system                          
           1
     2.306142   -3.863293   -0.000000
     2.306142    3.863293    0.000000
     0.000000   -0.000000    4.533269
   Ga
     4
Direct configuration=    14
   0.65585046  0.34414954  0.41612491
   0.84414954  0.15585046  0.91612491
   0.34414954  0.65585046  0.58387509
   0.15585046  0.84414954  0.08387509
