   2   2   1   0
  0.5000000E+03  0.1000000E-08  0.1000000E-08  0.1000000E-08  0.5000000E-15
  1.000000000000000E-004
  CAR 
 unknown system                          
      5.92877084    -29.62670264  301     -9.47489731      1.00000000
    -29.627  0.0000E+00  0.0000E+00
    -29.508  0.0000E+00  0.0000E+00
    -29.390  0.0000E+00  0.0000E+00
    -29.271  0.0000E+00  0.0000E+00
    -29.153  0.0000E+00  0.0000E+00
    -29.034  0.0000E+00  0.0000E+00
    -28.916  0.0000E+00  0.0000E+00
    -28.797  0.0000E+00  0.0000E+00
    -28.679  0.0000E+00  0.0000E+00
    -28.560  0.3279E-14  0.3886E-15
    -28.442  0.4619E-09  0.5475E-10
    -28.323  0.4186E-05  0.4962E-06
    -28.204  0.2566E-02  0.3047E-03
    -28.086  0.1181E+00  0.1431E-01
    -27.967  0.4943E+00  0.7289E-01
    -27.849  0.2193E+00  0.9889E-01
    -27.730  0.9367E-02  0.1000E+00
    -27.612  0.3139E-04  0.1000E+00
    -27.493  0.7266E-08  0.1000E+00
    -27.375  0.1094E-12  0.1000E+00
    -27.256  0.0000E+00  0.1000E+00
    -27.138  0.0000E+00  0.1000E+00
    -27.019  0.0000E+00  0.1000E+00
    -26.901  0.0000E+00  0.1000E+00
    -26.782  0.0000E+00  0.1000E+00
    -26.664  0.0000E+00  0.1000E+00
    -26.545  0.0000E+00  0.1000E+00
    -26.427  0.0000E+00  0.1000E+00
    -26.308  0.0000E+00  0.1000E+00
    -26.190  0.0000E+00  0.1000E+00
    -26.071  0.0000E+00  0.1000E+00
    -25.953  0.0000E+00  0.1000E+00
    -25.834  0.0000E+00  0.1000E+00
    -25.716  0.0000E+00  0.1000E+00
    -25.597  0.0000E+00  0.1000E+00
    -25.479  0.0000E+00  0.1000E+00
    -25.360  0.0000E+00  0.1000E+00
    -25.242  0.0000E+00  0.1000E+00
    -25.123  0.0000E+00  0.1000E+00
    -25.004  0.0000E+00  0.1000E+00
    -24.886  0.0000E+00  0.1000E+00
    -24.767  0.0000E+00  0.1000E+00
    -24.649  0.0000E+00  0.1000E+00
    -24.530  0.0000E+00  0.1000E+00
    -24.412  0.0000E+00  0.1000E+00
    -24.293  0.0000E+00  0.1000E+00
    -24.175  0.0000E+00  0.1000E+00
    -24.056  0.0000E+00  0.1000E+00
    -23.938  0.0000E+00  0.1000E+00
    -23.819  0.0000E+00  0.1000E+00
    -23.701  0.0000E+00  0.1000E+00
    -23.582  0.0000E+00  0.1000E+00
    -23.464  0.0000E+00  0.1000E+00
    -23.345  0.0000E+00  0.1000E+00
    -23.227  0.0000E+00  0.1000E+00
    -23.108  0.0000E+00  0.1000E+00
    -22.990  0.0000E+00  0.1000E+00
    -22.871  0.0000E+00  0.1000E+00
    -22.753  0.0000E+00  0.1000E+00
    -22.634  0.0000E+00  0.1000E+00
    -22.516  0.0000E+00  0.1000E+00
    -22.397  0.0000E+00  0.1000E+00
    -22.279  0.0000E+00  0.1000E+00
    -22.160  0.0000E+00  0.1000E+00
    -22.042  0.0000E+00  0.1000E+00
    -21.923  0.0000E+00  0.1000E+00
    -21.804  0.0000E+00  0.1000E+00
    -21.686  0.0000E+00  0.1000E+00
    -21.567  0.0000E+00  0.1000E+00
    -21.449  0.0000E+00  0.1000E+00
    -21.330  0.0000E+00  0.1000E+00
    -21.212  0.0000E+00  0.1000E+00
    -21.093  0.0000E+00  0.1000E+00
    -20.975  0.0000E+00  0.1000E+00
    -20.856  0.0000E+00  0.1000E+00
    -20.738  0.0000E+00  0.1000E+00
    -20.619  0.0000E+00  0.1000E+00
    -20.501  0.0000E+00  0.1000E+00
    -20.382  0.0000E+00  0.1000E+00
    -20.264  0.0000E+00  0.1000E+00
    -20.145  0.0000E+00  0.1000E+00
    -20.027  0.0000E+00  0.1000E+00
    -19.908  0.0000E+00  0.1000E+00
    -19.790  0.0000E+00  0.1000E+00
    -19.671  0.0000E+00  0.1000E+00
    -19.553  0.0000E+00  0.1000E+00
    -19.434  0.0000E+00  0.1000E+00
    -19.316  0.0000E+00  0.1000E+00
    -19.197  0.0000E+00  0.1000E+00
    -19.079  0.0000E+00  0.1000E+00
    -18.960  0.0000E+00  0.1000E+00
    -18.842  0.0000E+00  0.1000E+00
    -18.723  0.0000E+00  0.1000E+00
    -18.605  0.0000E+00  0.1000E+00
    -18.486  0.0000E+00  0.1000E+00
    -18.367  0.0000E+00  0.1000E+00
    -18.249  0.0000E+00  0.1000E+00
    -18.130  0.0000E+00  0.1000E+00
    -18.012  0.0000E+00  0.1000E+00
    -17.893  0.0000E+00  0.1000E+00
    -17.775  0.0000E+00  0.1000E+00
    -17.656  0.0000E+00  0.1000E+00
    -17.538  0.0000E+00  0.1000E+00
    -17.419  0.0000E+00  0.1000E+00
    -17.301  0.0000E+00  0.1000E+00
    -17.182  0.0000E+00  0.1000E+00
    -17.064  0.0000E+00  0.1000E+00
    -16.945  0.0000E+00  0.1000E+00
    -16.827  0.0000E+00  0.1000E+00
    -16.708  0.0000E+00  0.1000E+00
    -16.590  0.0000E+00  0.1000E+00
    -16.471  0.0000E+00  0.1000E+00
    -16.353  0.0000E+00  0.1000E+00
    -16.234  0.0000E+00  0.1000E+00
    -16.116  0.0000E+00  0.1000E+00
    -15.997  0.0000E+00  0.1000E+00
    -15.879  0.0000E+00  0.1000E+00
    -15.760  0.0000E+00  0.1000E+00
    -15.642  0.0000E+00  0.1000E+00
    -15.523  0.0000E+00  0.1000E+00
    -15.405  0.0000E+00  0.1000E+00
    -15.286  0.0000E+00  0.1000E+00
    -15.167  0.0000E+00  0.1000E+00
    -15.049  0.0000E+00  0.1000E+00
    -14.930  0.0000E+00  0.1000E+00
    -14.812  0.0000E+00  0.1000E+00
    -14.693  0.0000E+00  0.1000E+00
    -14.575  0.0000E+00  0.1000E+00
    -14.456  0.0000E+00  0.1000E+00
    -14.338  0.0000E+00  0.1000E+00
    -14.219  0.0000E+00  0.1000E+00
    -14.101  0.0000E+00  0.1000E+00
    -13.982  0.2787E-13  0.1000E+00
    -13.864  0.2492E-08  0.1000E+00
    -13.745  0.1444E-04  0.1000E+00
    -13.627  0.5731E-02  0.1007E+00
    -13.508  0.1752E+00  0.1214E+00
    -13.390  0.5041E+00  0.1812E+00
    -13.271  0.1543E+00  0.1995E+00
    -13.153  0.4392E-02  0.2000E+00
    -13.034  0.9544E-05  0.2000E+00
    -12.916  0.1414E-08  0.2000E+00
    -12.797  0.1349E-13  0.2000E+00
    -12.679  0.0000E+00  0.2000E+00
    -12.560  0.0000E+00  0.2000E+00
    -12.442  0.0000E+00  0.2000E+00
    -12.323  0.0000E+00  0.2000E+00
    -12.205  0.0000E+00  0.2000E+00
    -12.086  0.0000E+00  0.2000E+00
    -11.967  0.0000E+00  0.2000E+00
    -11.849  0.1310E-10  0.2000E+00
    -11.730  0.3413E-06  0.2000E+00
    -11.612  0.5879E-03  0.2001E+00
    -11.493  0.7233E-01  0.2086E+00
    -11.375  0.7449E+00  0.2969E+00
    -11.256  0.7840E+00  0.3898E+00
    -11.138  0.8487E-01  0.3999E+00
    -11.019  0.7763E-03  0.4000E+00
    -10.901  0.5099E-06  0.4000E+00
    -10.782  0.2219E-10  0.4000E+00
    -10.664  0.0000E+00  0.4000E+00
    -10.545  0.5765E-12  0.4000E+00
    -10.427  0.2640E-07  0.4000E+00
    -10.308  0.7910E-04  0.4000E+00
    -10.190  0.1658E-01  0.4020E+00
    -10.071  0.2794E+00  0.4351E+00
     -9.953  0.4650E+00  0.4902E+00
     -9.834  0.8142E-01  0.4999E+00
     -9.716  0.1258E-02  0.5000E+00
     -9.597  0.1432E-05  0.5000E+00
     -9.479  0.1093E-09  0.5000E+00
     -9.360  0.5621E-15  0.5000E+00
     -9.242  0.0000E+00  0.5000E+00
     -9.123  0.0000E+00  0.5000E+00
     -9.005  0.0000E+00  0.5000E+00
     -8.886  0.0000E+00  0.5000E+00
     -8.767  0.0000E+00  0.5000E+00
     -8.649  0.0000E+00  0.5000E+00
     -8.530  0.0000E+00  0.5000E+00
     -8.412  0.0000E+00  0.5000E+00
     -8.293  0.0000E+00  0.5000E+00
     -8.175  0.0000E+00  0.5000E+00
     -8.056  0.0000E+00  0.5000E+00
     -7.938  0.0000E+00  0.5000E+00
     -7.819  0.0000E+00  0.5000E+00
     -7.701  0.0000E+00  0.5000E+00
     -7.582  0.0000E+00  0.5000E+00
     -7.464  0.0000E+00  0.5000E+00
     -7.345  0.0000E+00  0.5000E+00
     -7.227  0.0000E+00  0.5000E+00
     -7.108  0.0000E+00  0.5000E+00
     -6.990  0.0000E+00  0.5000E+00
     -6.871  0.0000E+00  0.5000E+00
     -6.753  0.0000E+00  0.5000E+00
     -6.634  0.0000E+00  0.5000E+00
     -6.516  0.0000E+00  0.5000E+00
     -6.397  0.0000E+00  0.5000E+00
     -6.279  0.0000E+00  0.5000E+00
     -6.160  0.0000E+00  0.5000E+00
     -6.042  0.0000E+00  0.5000E+00
     -5.923  0.0000E+00  0.5000E+00
     -5.805  0.0000E+00  0.5000E+00
     -5.686  0.0000E+00  0.5000E+00
     -5.567  0.0000E+00  0.5000E+00
     -5.449  0.0000E+00  0.5000E+00
     -5.330  0.0000E+00  0.5000E+00
     -5.212  0.0000E+00  0.5000E+00
     -5.093  0.0000E+00  0.5000E+00
     -4.975  0.0000E+00  0.5000E+00
     -4.856  0.0000E+00  0.5000E+00
     -4.738  0.0000E+00  0.5000E+00
     -4.619  0.0000E+00  0.5000E+00
     -4.501  0.0000E+00  0.5000E+00
     -4.382  0.0000E+00  0.5000E+00
     -4.264  0.0000E+00  0.5000E+00
     -4.145  0.0000E+00  0.5000E+00
     -4.027  0.0000E+00  0.5000E+00
     -3.908  0.0000E+00  0.5000E+00
     -3.790  0.0000E+00  0.5000E+00
     -3.671  0.0000E+00  0.5000E+00
     -3.553  0.0000E+00  0.5000E+00
     -3.434  0.0000E+00  0.5000E+00
     -3.316  0.0000E+00  0.5000E+00
     -3.197  0.0000E+00  0.5000E+00
     -3.079  0.0000E+00  0.5000E+00
     -2.960  0.0000E+00  0.5000E+00
     -2.842  0.0000E+00  0.5000E+00
     -2.723  0.0000E+00  0.5000E+00
     -2.605  0.2810E-15  0.5000E+00
     -2.486  0.7232E-10  0.5000E+00
     -2.368  0.1247E-05  0.5000E+00
     -2.249  0.1434E-02  0.5002E+00
     -2.130  0.1199E+00  0.5144E+00
     -2.012  0.8656E+00  0.6170E+00
     -1.893  0.6511E+00  0.6941E+00
     -1.775  0.4924E-01  0.7000E+00
     -1.656  0.3052E-03  0.7000E+00
     -1.538  0.1337E-06  0.7000E+00
     -1.419  0.3849E-11  0.7000E+00
     -1.301  0.0000E+00  0.7000E+00
     -1.182  0.0000E+00  0.7000E+00
     -1.064  0.0000E+00  0.7000E+00
     -0.945  0.0000E+00  0.7000E+00
     -0.827  0.0000E+00  0.7000E+00
     -0.708  0.2446E-11  0.7000E+00
     -0.590  0.8035E-07  0.7000E+00
     -0.471  0.1737E-03  0.7000E+00
     -0.353  0.2658E-01  0.7032E+00
     -0.234  0.3348E+00  0.7429E+00
     -0.116  0.4254E+00  0.7933E+00
      0.003  0.5617E-01  0.7999E+00
      0.121  0.6379E-03  0.8000E+00
      0.240  0.5256E-06  0.8000E+00
      0.358  0.2882E-10  0.8000E+00
      0.477  0.9368E-16  0.8000E+00
      0.595  0.5822E-13  0.8000E+00
      0.714  0.5189E-08  0.8000E+00
      0.832  0.3025E-04  0.8000E+00
      0.951  0.1240E-01  0.8015E+00
      1.070  0.4203E+00  0.8513E+00
      1.188  0.1641E+01  0.1046E+01
      1.307  0.1503E+01  0.1224E+01
      1.425  0.1139E+01  0.1359E+01
      1.544  0.3340E+00  0.1398E+01
      1.662  0.1319E-01  0.1400E+01
      1.781  0.4680E-04  0.1400E+01
      1.899  0.1214E-07  0.1400E+01
      2.018  0.2130E-12  0.1400E+01
      2.136  0.6452E-09  0.1400E+01
      2.255  0.7184E-05  0.1400E+01
      2.373  0.5467E-02  0.1401E+01
      2.492  0.3201E+00  0.1439E+01
      2.610  0.1822E+01  0.1655E+01
      2.729  0.1952E+01  0.1886E+01
      2.847  0.2403E+01  0.2171E+01
      2.966  0.2197E+01  0.2431E+01
      3.084  0.9246E+00  0.2541E+01
      3.203  0.4449E+00  0.2593E+01
      3.321  0.5616E-01  0.2600E+01
      3.440  0.6367E-03  0.2600E+01
      3.558  0.5241E-06  0.2600E+01
      3.677  0.3306E-10  0.2600E+01
      3.795  0.1248E-06  0.2600E+01
      3.914  0.2365E-03  0.2600E+01
      4.032  0.3224E-01  0.2604E+01
      4.151  0.4349E+00  0.2655E+01
      4.270  0.1747E+01  0.2862E+01
      4.388  0.2393E+01  0.3146E+01
      4.507  0.4471E+00  0.3199E+01
      4.625  0.7844E-02  0.3200E+01
      4.744  0.1061E-04  0.3200E+01
      4.862  0.9993E-09  0.3200E+01
      4.981  0.6276E-14  0.3200E+01
      5.099  0.0000E+00  0.3200E+01
      5.218  0.0000E+00  0.3200E+01
      5.336  0.0000E+00  0.3200E+01
      5.455  0.0000E+00  0.3200E+01
      5.573  0.0000E+00  0.3200E+01
      5.692  0.0000E+00  0.3200E+01
      5.810  0.0000E+00  0.3200E+01
      5.929  0.0000E+00  0.3200E+01
      5.92877084    -29.62670264  301     -9.47489731      1.00000000
    -29.627  0.0000E+00  0.0000E+00  0.0000E+00
    -29.508  0.0000E+00  0.0000E+00  0.0000E+00
    -29.390  0.0000E+00  0.0000E+00  0.0000E+00
    -29.271  0.0000E+00  0.0000E+00  0.0000E+00
    -29.153  0.0000E+00  0.0000E+00  0.0000E+00
    -29.034  0.0000E+00  0.0000E+00  0.0000E+00
    -28.916  0.0000E+00  0.0000E+00  0.0000E+00
    -28.797  0.0000E+00  0.0000E+00  0.0000E+00
    -28.679  0.0000E+00  0.0000E+00  0.0000E+00
    -28.560  0.2545E-13  0.9630E-14  0.0000E+00
    -28.442  0.3585E-08  0.1357E-08  0.0000E+00
    -28.323  0.3249E-04  0.1230E-04  0.0000E+00
    -28.204  0.1992E-01  0.7538E-02  0.0000E+00
    -28.086  0.9170E+00  0.3470E+00  0.0000E+00
    -27.967  0.3836E+01  0.1452E+01  0.0000E+00
    -27.849  0.1702E+01  0.6443E+00  0.0000E+00
    -27.730  0.7270E-01  0.2751E-01  0.0000E+00
    -27.612  0.2436E-03  0.9220E-04  0.0000E+00
    -27.493  0.5640E-07  0.2134E-07  0.0000E+00
    -27.375  0.8492E-12  0.3214E-12  0.0000E+00
    -27.256  0.0000E+00  0.0000E+00  0.0000E+00
    -27.138  0.0000E+00  0.0000E+00  0.0000E+00
    -27.019  0.0000E+00  0.0000E+00  0.0000E+00
    -26.901  0.0000E+00  0.0000E+00  0.0000E+00
    -26.782  0.0000E+00  0.0000E+00  0.0000E+00
    -26.664  0.0000E+00  0.0000E+00  0.0000E+00
    -26.545  0.0000E+00  0.0000E+00  0.0000E+00
    -26.427  0.0000E+00  0.0000E+00  0.0000E+00
    -26.308  0.0000E+00  0.0000E+00  0.0000E+00
    -26.190  0.0000E+00  0.0000E+00  0.0000E+00
    -26.071  0.0000E+00  0.0000E+00  0.0000E+00
    -25.953  0.0000E+00  0.0000E+00  0.0000E+00
    -25.834  0.0000E+00  0.0000E+00  0.0000E+00
    -25.716  0.0000E+00  0.0000E+00  0.0000E+00
    -25.597  0.0000E+00  0.0000E+00  0.0000E+00
    -25.479  0.0000E+00  0.0000E+00  0.0000E+00
    -25.360  0.0000E+00  0.0000E+00  0.0000E+00
    -25.242  0.0000E+00  0.0000E+00  0.0000E+00
    -25.123  0.0000E+00  0.0000E+00  0.0000E+00
    -25.004  0.0000E+00  0.0000E+00  0.0000E+00
    -24.886  0.0000E+00  0.0000E+00  0.0000E+00
    -24.767  0.0000E+00  0.0000E+00  0.0000E+00
    -24.649  0.0000E+00  0.0000E+00  0.0000E+00
    -24.530  0.0000E+00  0.0000E+00  0.0000E+00
    -24.412  0.0000E+00  0.0000E+00  0.0000E+00
    -24.293  0.0000E+00  0.0000E+00  0.0000E+00
    -24.175  0.0000E+00  0.0000E+00  0.0000E+00
    -24.056  0.0000E+00  0.0000E+00  0.0000E+00
    -23.938  0.0000E+00  0.0000E+00  0.0000E+00
    -23.819  0.0000E+00  0.0000E+00  0.0000E+00
    -23.701  0.0000E+00  0.0000E+00  0.0000E+00
    -23.582  0.0000E+00  0.0000E+00  0.0000E+00
    -23.464  0.0000E+00  0.0000E+00  0.0000E+00
    -23.345  0.0000E+00  0.0000E+00  0.0000E+00
    -23.227  0.0000E+00  0.0000E+00  0.0000E+00
    -23.108  0.0000E+00  0.0000E+00  0.0000E+00
    -22.990  0.0000E+00  0.0000E+00  0.0000E+00
    -22.871  0.0000E+00  0.0000E+00  0.0000E+00
    -22.753  0.0000E+00  0.0000E+00  0.0000E+00
    -22.634  0.0000E+00  0.0000E+00  0.0000E+00
    -22.516  0.0000E+00  0.0000E+00  0.0000E+00
    -22.397  0.0000E+00  0.0000E+00  0.0000E+00
    -22.279  0.0000E+00  0.0000E+00  0.0000E+00
    -22.160  0.0000E+00  0.0000E+00  0.0000E+00
    -22.042  0.0000E+00  0.0000E+00  0.0000E+00
    -21.923  0.0000E+00  0.0000E+00  0.0000E+00
    -21.804  0.0000E+00  0.0000E+00  0.0000E+00
    -21.686  0.0000E+00  0.0000E+00  0.0000E+00
    -21.567  0.0000E+00  0.0000E+00  0.0000E+00
    -21.449  0.0000E+00  0.0000E+00  0.0000E+00
    -21.330  0.0000E+00  0.0000E+00  0.0000E+00
    -21.212  0.0000E+00  0.0000E+00  0.0000E+00
    -21.093  0.0000E+00  0.0000E+00  0.0000E+00
    -20.975  0.0000E+00  0.0000E+00  0.0000E+00
    -20.856  0.0000E+00  0.0000E+00  0.0000E+00
    -20.738  0.0000E+00  0.0000E+00  0.0000E+00
    -20.619  0.0000E+00  0.0000E+00  0.0000E+00
    -20.501  0.0000E+00  0.0000E+00  0.0000E+00
    -20.382  0.0000E+00  0.0000E+00  0.0000E+00
    -20.264  0.0000E+00  0.0000E+00  0.0000E+00
    -20.145  0.0000E+00  0.0000E+00  0.0000E+00
    -20.027  0.0000E+00  0.0000E+00  0.0000E+00
    -19.908  0.0000E+00  0.0000E+00  0.0000E+00
    -19.790  0.0000E+00  0.0000E+00  0.0000E+00
    -19.671  0.0000E+00  0.0000E+00  0.0000E+00
    -19.553  0.0000E+00  0.0000E+00  0.0000E+00
    -19.434  0.0000E+00  0.0000E+00  0.0000E+00
    -19.316  0.0000E+00  0.0000E+00  0.0000E+00
    -19.197  0.0000E+00  0.0000E+00  0.0000E+00
    -19.079  0.0000E+00  0.0000E+00  0.0000E+00
    -18.960  0.0000E+00  0.0000E+00  0.0000E+00
    -18.842  0.0000E+00  0.0000E+00  0.0000E+00
    -18.723  0.0000E+00  0.0000E+00  0.0000E+00
    -18.605  0.0000E+00  0.0000E+00  0.0000E+00
    -18.486  0.0000E+00  0.0000E+00  0.0000E+00
    -18.367  0.0000E+00  0.0000E+00  0.0000E+00
    -18.249  0.0000E+00  0.0000E+00  0.0000E+00
    -18.130  0.0000E+00  0.0000E+00  0.0000E+00
    -18.012  0.0000E+00  0.0000E+00  0.0000E+00
    -17.893  0.0000E+00  0.0000E+00  0.0000E+00
    -17.775  0.0000E+00  0.0000E+00  0.0000E+00
    -17.656  0.0000E+00  0.0000E+00  0.0000E+00
    -17.538  0.0000E+00  0.0000E+00  0.0000E+00
    -17.419  0.0000E+00  0.0000E+00  0.0000E+00
    -17.301  0.0000E+00  0.0000E+00  0.0000E+00
    -17.182  0.0000E+00  0.0000E+00  0.0000E+00
    -17.064  0.0000E+00  0.0000E+00  0.0000E+00
    -16.945  0.0000E+00  0.0000E+00  0.0000E+00
    -16.827  0.0000E+00  0.0000E+00  0.0000E+00
    -16.708  0.0000E+00  0.0000E+00  0.0000E+00
    -16.590  0.0000E+00  0.0000E+00  0.0000E+00
    -16.471  0.0000E+00  0.0000E+00  0.0000E+00
    -16.353  0.0000E+00  0.0000E+00  0.0000E+00
    -16.234  0.0000E+00  0.0000E+00  0.0000E+00
    -16.116  0.0000E+00  0.0000E+00  0.0000E+00
    -15.997  0.0000E+00  0.0000E+00  0.0000E+00
    -15.879  0.0000E+00  0.0000E+00  0.0000E+00
    -15.760  0.0000E+00  0.0000E+00  0.0000E+00
    -15.642  0.0000E+00  0.0000E+00  0.0000E+00
    -15.523  0.0000E+00  0.0000E+00  0.0000E+00
    -15.405  0.0000E+00  0.0000E+00  0.0000E+00
    -15.286  0.0000E+00  0.0000E+00  0.0000E+00
    -15.167  0.0000E+00  0.0000E+00  0.0000E+00
    -15.049  0.0000E+00  0.0000E+00  0.0000E+00
    -14.930  0.0000E+00  0.0000E+00  0.0000E+00
    -14.812  0.0000E+00  0.0000E+00  0.0000E+00
    -14.693  0.0000E+00  0.0000E+00  0.0000E+00
    -14.575  0.0000E+00  0.0000E+00  0.0000E+00
    -14.456  0.0000E+00  0.0000E+00  0.0000E+00
    -14.338  0.0000E+00  0.0000E+00  0.0000E+00
    -14.219  0.0000E+00  0.0000E+00  0.0000E+00
    -14.101  0.0000E+00  0.0000E+00  0.0000E+00
    -13.982  0.1502E-12  0.4441E-13  0.0000E+00
    -13.864  0.1343E-07  0.3972E-08  0.0000E+00
    -13.745  0.7786E-04  0.2302E-04  0.0000E+00
    -13.627  0.3089E-01  0.9133E-02  0.0000E+00
    -13.508  0.9444E+00  0.2792E+00  0.0000E+00
    -13.390  0.2717E+01  0.8034E+00  0.0000E+00
    -13.271  0.8316E+00  0.2459E+00  0.0000E+00
    -13.153  0.2367E-01  0.6998E-02  0.0000E+00
    -13.034  0.5145E-04  0.1521E-04  0.0000E+00
    -12.916  0.7623E-08  0.2254E-08  0.0000E+00
    -12.797  0.7271E-13  0.2150E-13  0.0000E+00
    -12.679  0.0000E+00  0.0000E+00  0.0000E+00
    -12.560  0.0000E+00  0.0000E+00  0.0000E+00
    -12.442  0.0000E+00  0.0000E+00  0.0000E+00
    -12.323  0.0000E+00  0.0000E+00  0.0000E+00
    -12.205  0.0000E+00  0.0000E+00  0.0000E+00
    -12.086  0.0000E+00  0.0000E+00  0.0000E+00
    -11.967  0.0000E+00  0.0000E+00  0.0000E+00
    -11.849  0.5776E-36  0.8681E-10  0.0000E+00
    -11.730  0.1505E-31  0.2262E-05  0.0000E+00
    -11.612  0.2592E-28  0.3896E-02  0.0000E+00
    -11.493  0.3189E-26  0.4793E+00  0.0000E+00
    -11.375  0.3284E-25  0.4937E+01  0.0000E+00
    -11.256  0.3457E-25  0.5196E+01  0.0000E+00
    -11.138  0.3742E-26  0.5624E+00  0.0000E+00
    -11.019  0.3423E-28  0.5144E-02  0.0000E+00
    -10.901  0.2248E-31  0.3379E-05  0.0000E+00
    -10.782  0.9785E-36  0.1471E-09  0.0000E+00
    -10.664  0.0000E+00  0.0000E+00  0.0000E+00
    -10.545  0.4046E-12  0.3643E-11  0.0000E+00
    -10.427  0.1852E-07  0.1668E-06  0.0000E+00
    -10.308  0.5552E-04  0.4998E-03  0.0000E+00
    -10.190  0.1164E-01  0.1048E+00  0.0000E+00
    -10.071  0.1961E+00  0.1765E+01  0.0000E+00
     -9.953  0.3264E+00  0.2939E+01  0.0000E+00
     -9.834  0.5714E-01  0.5145E+00  0.0000E+00
     -9.716  0.8830E-03  0.7950E-02  0.0000E+00
     -9.597  0.1005E-05  0.9052E-05  0.0000E+00
     -9.479  0.7675E-10  0.6910E-09  0.0000E+00
     -9.360  0.3945E-15  0.3552E-14  0.0000E+00
     -9.242  0.0000E+00  0.0000E+00  0.0000E+00
     -9.123  0.0000E+00  0.0000E+00  0.0000E+00
     -9.005  0.0000E+00  0.0000E+00  0.0000E+00
     -8.886  0.0000E+00  0.0000E+00  0.0000E+00
     -8.767  0.0000E+00  0.0000E+00  0.0000E+00
     -8.649  0.0000E+00  0.0000E+00  0.0000E+00
     -8.530  0.0000E+00  0.0000E+00  0.0000E+00
     -8.412  0.0000E+00  0.0000E+00  0.0000E+00
     -8.293  0.0000E+00  0.0000E+00  0.0000E+00
     -8.175  0.0000E+00  0.0000E+00  0.0000E+00
     -8.056  0.0000E+00  0.0000E+00  0.0000E+00
     -7.938  0.0000E+00  0.0000E+00  0.0000E+00
     -7.819  0.0000E+00  0.0000E+00  0.0000E+00
     -7.701  0.0000E+00  0.0000E+00  0.0000E+00
     -7.582  0.0000E+00  0.0000E+00  0.0000E+00
     -7.464  0.0000E+00  0.0000E+00  0.0000E+00
     -7.345  0.0000E+00  0.0000E+00  0.0000E+00
     -7.227  0.0000E+00  0.0000E+00  0.0000E+00
     -7.108  0.0000E+00  0.0000E+00  0.0000E+00
     -6.990  0.0000E+00  0.0000E+00  0.0000E+00
     -6.871  0.0000E+00  0.0000E+00  0.0000E+00
     -6.753  0.0000E+00  0.0000E+00  0.0000E+00
     -6.634  0.0000E+00  0.0000E+00  0.0000E+00
     -6.516  0.0000E+00  0.0000E+00  0.0000E+00
     -6.397  0.0000E+00  0.0000E+00  0.0000E+00
     -6.279  0.0000E+00  0.0000E+00  0.0000E+00
     -6.160  0.0000E+00  0.0000E+00  0.0000E+00
     -6.042  0.0000E+00  0.0000E+00  0.0000E+00
     -5.923  0.0000E+00  0.0000E+00  0.0000E+00
     -5.805  0.0000E+00  0.0000E+00  0.0000E+00
     -5.686  0.0000E+00  0.0000E+00  0.0000E+00
     -5.567  0.0000E+00  0.0000E+00  0.0000E+00
     -5.449  0.0000E+00  0.0000E+00  0.0000E+00
     -5.330  0.0000E+00  0.0000E+00  0.0000E+00
     -5.212  0.0000E+00  0.0000E+00  0.0000E+00
     -5.093  0.0000E+00  0.0000E+00  0.0000E+00
     -4.975  0.0000E+00  0.0000E+00  0.0000E+00
     -4.856  0.0000E+00  0.0000E+00  0.0000E+00
     -4.738  0.0000E+00  0.0000E+00  0.0000E+00
     -4.619  0.0000E+00  0.0000E+00  0.0000E+00
     -4.501  0.0000E+00  0.0000E+00  0.0000E+00
     -4.382  0.0000E+00  0.0000E+00  0.0000E+00
     -4.264  0.0000E+00  0.0000E+00  0.0000E+00
     -4.145  0.0000E+00  0.0000E+00  0.0000E+00
     -4.027  0.0000E+00  0.0000E+00  0.0000E+00
     -3.908  0.0000E+00  0.0000E+00  0.0000E+00
     -3.790  0.0000E+00  0.0000E+00  0.0000E+00
     -3.671  0.0000E+00  0.0000E+00  0.0000E+00
     -3.553  0.0000E+00  0.0000E+00  0.0000E+00
     -3.434  0.0000E+00  0.0000E+00  0.0000E+00
     -3.316  0.0000E+00  0.0000E+00  0.0000E+00
     -3.197  0.0000E+00  0.0000E+00  0.0000E+00
     -3.079  0.0000E+00  0.0000E+00  0.0000E+00
     -2.960  0.0000E+00  0.0000E+00  0.0000E+00
     -2.842  0.0000E+00  0.0000E+00  0.0000E+00
     -2.723  0.0000E+00  0.0000E+00  0.0000E+00
     -2.605  0.1476E-42  0.1608E-14  0.0000E+00
     -2.486  0.3798E-37  0.4139E-09  0.0000E+00
     -2.368  0.6551E-33  0.7139E-05  0.0000E+00
     -2.249  0.7530E-30  0.8207E-02  0.0000E+00
     -2.130  0.6294E-28  0.6860E+00  0.0000E+00
     -2.012  0.4545E-27  0.4954E+01  0.0000E+00
     -1.893  0.3419E-27  0.3726E+01  0.0000E+00
     -1.775  0.2586E-28  0.2818E+00  0.0000E+00
     -1.656  0.1603E-30  0.1747E-02  0.0000E+00
     -1.538  0.7019E-34  0.7650E-06  0.0000E+00
     -1.419  0.2021E-38  0.2203E-10  0.0000E+00
     -1.301  0.0000E+00  0.0000E+00  0.0000E+00
     -1.182  0.0000E+00  0.0000E+00  0.0000E+00
     -1.064  0.0000E+00  0.0000E+00  0.0000E+00
     -0.945  0.0000E+00  0.0000E+00  0.0000E+00
     -0.827  0.0000E+00  0.0000E+00  0.0000E+00
     -0.708  0.1950E-12  0.1812E-12  0.0000E+00
     -0.590  0.6406E-08  0.5952E-08  0.0000E+00
     -0.471  0.1385E-04  0.1287E-04  0.0000E+00
     -0.353  0.2119E-02  0.1969E-02  0.0000E+00
     -0.234  0.2669E-01  0.2480E-01  0.0000E+00
     -0.116  0.3391E-01  0.3151E-01  0.0000E+00
      0.003  0.4478E-02  0.4160E-02  0.0000E+00
      0.121  0.5086E-04  0.4725E-04  0.0000E+00
      0.240  0.4190E-07  0.3893E-07  0.0000E+00
      0.358  0.2298E-11  0.2135E-11  0.0000E+00
      0.477  0.7468E-17  0.6938E-17  0.0000E+00
      0.595  0.1609E-16  0.7786E-14  0.0000E+00
      0.714  0.4457E-11  0.6908E-09  0.0000E+00
      0.832  0.7570E-07  0.3974E-05  0.0000E+00
      0.951  0.8655E-04  0.1570E-02  0.0000E+00
      1.070  0.7506E-02  0.4823E-01  0.0000E+00
      1.188  0.6465E-01  0.1449E+00  0.0000E+00
      1.307  0.8362E-01  0.6442E-01  0.0000E+00
      1.425  0.4167E-01  0.4221E-01  0.0000E+00
      1.544  0.1370E-01  0.1874E-01  0.0000E+00
      1.662  0.6477E-03  0.9043E-03  0.0000E+00
      1.781  0.2484E-05  0.3471E-05  0.0000E+00
      1.899  0.6618E-09  0.9248E-09  0.0000E+00
      2.018  0.1150E-13  0.1645E-13  0.0000E+00
      2.136  0.4133E-12  0.6284E-10  0.0000E+00
      2.255  0.1288E-07  0.6829E-06  0.0000E+00
      2.373  0.2643E-04  0.5005E-03  0.0000E+00
      2.492  0.3851E-02  0.2739E-01  0.0000E+00
      2.610  0.4670E-01  0.1390E+00  0.0000E+00
      2.729  0.6249E-01  0.1709E+00  0.0000E+00
      2.847  0.1639E-01  0.2442E+00  0.0000E+00
      2.966  0.5016E-02  0.6390E-01  0.0000E+00
      3.084  0.4378E-01  0.2595E-01  0.0000E+00
      3.203  0.5556E-01  0.3104E-01  0.0000E+00
      3.321  0.7331E-02  0.4095E-02  0.0000E+00
      3.440  0.8319E-04  0.4647E-04  0.0000E+00
      3.558  0.6847E-07  0.3825E-07  0.0000E+00
      3.677  0.3752E-11  0.2096E-11  0.0000E+00
      3.795  0.6725E-14  0.4324E-12  0.0000E+00
      3.914  0.4456E-09  0.1707E-07  0.0000E+00
      4.032  0.1925E-05  0.4473E-04  0.0000E+00
      4.151  0.5745E-03  0.8358E-02  0.0000E+00
      4.270  0.1345E-01  0.1286E+00  0.0000E+00
      4.388  0.3031E-01  0.2000E+00  0.0000E+00
      4.507  0.7246E-02  0.3322E-01  0.0000E+00
      4.625  0.1574E-03  0.4965E-03  0.0000E+00
      4.744  0.2568E-06  0.5616E-06  0.0000E+00
      4.862  0.2833E-10  0.4392E-10  0.0000E+00
      4.981  0.2011E-15  0.2247E-15  0.0000E+00
      5.099  0.0000E+00  0.0000E+00  0.0000E+00
      5.218  0.0000E+00  0.0000E+00  0.0000E+00
      5.336  0.0000E+00  0.0000E+00  0.0000E+00
      5.455  0.0000E+00  0.0000E+00  0.0000E+00
      5.573  0.0000E+00  0.0000E+00  0.0000E+00
      5.692  0.0000E+00  0.0000E+00  0.0000E+00
      5.810  0.0000E+00  0.0000E+00  0.0000E+00
      5.929  0.0000E+00  0.0000E+00  0.0000E+00
      5.92877084    -29.62670264  301     -9.47489731      1.00000000
    -29.627  0.0000E+00  0.0000E+00  0.0000E+00
    -29.508  0.0000E+00  0.0000E+00  0.0000E+00
    -29.390  0.0000E+00  0.0000E+00  0.0000E+00
    -29.271  0.0000E+00  0.0000E+00  0.0000E+00
    -29.153  0.0000E+00  0.0000E+00  0.0000E+00
    -29.034  0.0000E+00  0.0000E+00  0.0000E+00
    -28.916  0.0000E+00  0.0000E+00  0.0000E+00
    -28.797  0.0000E+00  0.0000E+00  0.0000E+00
    -28.679  0.0000E+00  0.0000E+00  0.0000E+00
    -28.560  0.2545E-13  0.9630E-14  0.0000E+00
    -28.442  0.3585E-08  0.1357E-08  0.0000E+00
    -28.323  0.3249E-04  0.1230E-04  0.0000E+00
    -28.204  0.1992E-01  0.7538E-02  0.0000E+00
    -28.086  0.9170E+00  0.3470E+00  0.0000E+00
    -27.967  0.3836E+01  0.1452E+01  0.0000E+00
    -27.849  0.1702E+01  0.6443E+00  0.0000E+00
    -27.730  0.7270E-01  0.2751E-01  0.0000E+00
    -27.612  0.2436E-03  0.9220E-04  0.0000E+00
    -27.493  0.5640E-07  0.2134E-07  0.0000E+00
    -27.375  0.8492E-12  0.3214E-12  0.0000E+00
    -27.256  0.0000E+00  0.0000E+00  0.0000E+00
    -27.138  0.0000E+00  0.0000E+00  0.0000E+00
    -27.019  0.0000E+00  0.0000E+00  0.0000E+00
    -26.901  0.0000E+00  0.0000E+00  0.0000E+00
    -26.782  0.0000E+00  0.0000E+00  0.0000E+00
    -26.664  0.0000E+00  0.0000E+00  0.0000E+00
    -26.545  0.0000E+00  0.0000E+00  0.0000E+00
    -26.427  0.0000E+00  0.0000E+00  0.0000E+00
    -26.308  0.0000E+00  0.0000E+00  0.0000E+00
    -26.190  0.0000E+00  0.0000E+00  0.0000E+00
    -26.071  0.0000E+00  0.0000E+00  0.0000E+00
    -25.953  0.0000E+00  0.0000E+00  0.0000E+00
    -25.834  0.0000E+00  0.0000E+00  0.0000E+00
    -25.716  0.0000E+00  0.0000E+00  0.0000E+00
    -25.597  0.0000E+00  0.0000E+00  0.0000E+00
    -25.479  0.0000E+00  0.0000E+00  0.0000E+00
    -25.360  0.0000E+00  0.0000E+00  0.0000E+00
    -25.242  0.0000E+00  0.0000E+00  0.0000E+00
    -25.123  0.0000E+00  0.0000E+00  0.0000E+00
    -25.004  0.0000E+00  0.0000E+00  0.0000E+00
    -24.886  0.0000E+00  0.0000E+00  0.0000E+00
    -24.767  0.0000E+00  0.0000E+00  0.0000E+00
    -24.649  0.0000E+00  0.0000E+00  0.0000E+00
    -24.530  0.0000E+00  0.0000E+00  0.0000E+00
    -24.412  0.0000E+00  0.0000E+00  0.0000E+00
    -24.293  0.0000E+00  0.0000E+00  0.0000E+00
    -24.175  0.0000E+00  0.0000E+00  0.0000E+00
    -24.056  0.0000E+00  0.0000E+00  0.0000E+00
    -23.938  0.0000E+00  0.0000E+00  0.0000E+00
    -23.819  0.0000E+00  0.0000E+00  0.0000E+00
    -23.701  0.0000E+00  0.0000E+00  0.0000E+00
    -23.582  0.0000E+00  0.0000E+00  0.0000E+00
    -23.464  0.0000E+00  0.0000E+00  0.0000E+00
    -23.345  0.0000E+00  0.0000E+00  0.0000E+00
    -23.227  0.0000E+00  0.0000E+00  0.0000E+00
    -23.108  0.0000E+00  0.0000E+00  0.0000E+00
    -22.990  0.0000E+00  0.0000E+00  0.0000E+00
    -22.871  0.0000E+00  0.0000E+00  0.0000E+00
    -22.753  0.0000E+00  0.0000E+00  0.0000E+00
    -22.634  0.0000E+00  0.0000E+00  0.0000E+00
    -22.516  0.0000E+00  0.0000E+00  0.0000E+00
    -22.397  0.0000E+00  0.0000E+00  0.0000E+00
    -22.279  0.0000E+00  0.0000E+00  0.0000E+00
    -22.160  0.0000E+00  0.0000E+00  0.0000E+00
    -22.042  0.0000E+00  0.0000E+00  0.0000E+00
    -21.923  0.0000E+00  0.0000E+00  0.0000E+00
    -21.804  0.0000E+00  0.0000E+00  0.0000E+00
    -21.686  0.0000E+00  0.0000E+00  0.0000E+00
    -21.567  0.0000E+00  0.0000E+00  0.0000E+00
    -21.449  0.0000E+00  0.0000E+00  0.0000E+00
    -21.330  0.0000E+00  0.0000E+00  0.0000E+00
    -21.212  0.0000E+00  0.0000E+00  0.0000E+00
    -21.093  0.0000E+00  0.0000E+00  0.0000E+00
    -20.975  0.0000E+00  0.0000E+00  0.0000E+00
    -20.856  0.0000E+00  0.0000E+00  0.0000E+00
    -20.738  0.0000E+00  0.0000E+00  0.0000E+00
    -20.619  0.0000E+00  0.0000E+00  0.0000E+00
    -20.501  0.0000E+00  0.0000E+00  0.0000E+00
    -20.382  0.0000E+00  0.0000E+00  0.0000E+00
    -20.264  0.0000E+00  0.0000E+00  0.0000E+00
    -20.145  0.0000E+00  0.0000E+00  0.0000E+00
    -20.027  0.0000E+00  0.0000E+00  0.0000E+00
    -19.908  0.0000E+00  0.0000E+00  0.0000E+00
    -19.790  0.0000E+00  0.0000E+00  0.0000E+00
    -19.671  0.0000E+00  0.0000E+00  0.0000E+00
    -19.553  0.0000E+00  0.0000E+00  0.0000E+00
    -19.434  0.0000E+00  0.0000E+00  0.0000E+00
    -19.316  0.0000E+00  0.0000E+00  0.0000E+00
    -19.197  0.0000E+00  0.0000E+00  0.0000E+00
    -19.079  0.0000E+00  0.0000E+00  0.0000E+00