PROCAR new format
# of k-points:    1         # of bands:   32         # of ions:    2

 k-point     1 :    0.00000000 0.00000000 0.00000000     weight = 1.00000000

band     1 # energy  -28.01054475 # occ.  2.00000000
 
ion      s      p      d    tot
    1  0.388  0.147  0.000  0.535
    2  0.388  0.147  0.000  0.535
tot    0.776  0.294  0.000  1.070
 
band     2 # energy  -13.45228590 # occ.  2.00000000
 
ion      s      p      d    tot
    1  0.270  0.080  0.000  0.349
    2  0.270  0.080  0.000  0.349
tot    0.539  0.159  0.000  0.698
 
band     3 # energy  -11.37217129 # occ.  2.00000000
 
ion      s      p      d    tot
    1  0.000  0.331  0.000  0.331
    2  0.000  0.331  0.000  0.331
tot    0.000  0.663  0.000  0.663
 
band     4 # energy  -11.37217123 # occ.  2.00000000
 
ion      s      p      d    tot
    1  0.000  0.331  0.000  0.331
    2  0.000  0.331  0.000  0.331
tot    0.000  0.663  0.000  0.663
 
band     5 # energy  -10.04410993 # occ.  2.00000000
 
ion      s      p      d    tot
    1  0.035  0.316  0.000  0.351
    2  0.035  0.316  0.000  0.351
tot    0.070  0.632  0.000  0.702
 
band     6 # energy   -2.02709725 # occ.  0.00000000
 
ion      s      p      d    tot
    1  0.000  0.286  0.000  0.286
    2  0.000  0.286  0.000  0.286
tot    0.000  0.572  0.000  0.572
 
band     7 # energy   -2.02709720 # occ.  0.00000000
 
ion      s      p      d    tot
    1  0.000  0.286  0.000  0.286
    2  0.000  0.286  0.000  0.286
tot    0.000  0.572  0.000  0.572
 
band     8 # energy   -0.22144288 # occ.  0.00000000
 
ion      s      p      d    tot
    1  0.004  0.004  0.000  0.008
    2  0.004  0.004  0.000  0.008
tot    0.008  0.007  0.000  0.015
 
band     9 # energy    1.12507097 # occ.  0.00000000
 
ion      s      p      d    tot
    1  0.000  0.007  0.000  0.007
    2  0.000  0.007  0.000  0.007
tot    0.000  0.013  0.000  0.013
 
band    10 # energy    1.12507097 # occ.  0.00000000
 
ion      s      p      d    tot
    1  0.000  0.007  0.000  0.007
    2  0.000  0.007  0.000  0.007
tot    0.000  0.013  0.000  0.013
 
band    11 # energy    1.17212104 # occ.  0.00000000
 
ion      s      p      d    tot
    1  0.006  0.001  0.000  0.006
    2  0.006  0.001  0.000  0.006
tot    0.011  0.001  0.000  0.013
 
band    12 # energy    1.24233059 # occ.  0.00000000
 
ion      s      p      d    tot
    1  0.004  0.001  0.000  0.005
    2  0.004  0.001  0.000  0.005
tot    0.008  0.002  0.000  0.010
 
band    13 # energy    1.33675876 # occ.  0.00000000
 
ion      s      p      d    tot
    1  0.000  0.000  0.000  0.000
    2  0.000  0.000  0.000  0.000
tot    0.000  0.000  0.000  0.000
 
band    14 # energy    1.38813083 # occ.  0.00000000
 
ion      s      p      d    tot
    1  0.003  0.004  0.000  0.007
    2  0.003  0.004  0.000  0.007
tot    0.006  0.008  0.000  0.013
 
band    15 # energy    2.57502917 # occ.  0.00000000
 
ion      s      p      d    tot
    1  0.000  0.007  0.000  0.007
    2  0.000  0.007  0.000  0.007
tot    0.000  0.014  0.000  0.014
 
band    16 # energy    2.57502918 # occ.  0.00000000
 
ion      s      p      d    tot
    1  0.000  0.007  0.000  0.007
    2  0.000  0.007  0.000  0.007
tot    0.000  0.014  0.000  0.014
 
band    17 # energy    2.57745303 # occ.  0.00000000
 
ion      s      p      d    tot
    1  0.000  0.000  0.000  0.000
    2  0.000  0.000  0.000  0.000
tot    0.000  0.000  0.000  0.000
 
band    18 # energy    2.62071453 # occ.  0.00000000
 
ion      s      p      d    tot
    1  0.007  0.000  0.000  0.007
    2  0.007  0.000  0.000  0.007
tot    0.013  0.001  0.000  0.014
 
band    19 # energy    2.75056150 # occ.  0.00000000
 
ion      s      p      d    tot
    1  0.001  0.000  0.000  0.001
    2  0.001  0.000  0.000  0.001
tot    0.002  0.000  0.000  0.002
 
band    20 # energy    2.77572442 # occ.  0.00000000
 
ion      s      p      d    tot
    1  0.000  0.012  0.000  0.012
    2  0.000  0.012  0.000  0.012
tot    0.000  0.024  0.000  0.024
 
band    21 # energy    2.77572443 # occ.  0.00000000
 
ion      s      p      d    tot
    1  0.000  0.012  0.000  0.012
    2  0.000  0.012  0.000  0.012
tot    0.000  0.024  0.000  0.024
 
band    22 # energy    2.83412453 # occ.  0.00000000
 
ion      s      p      d    tot
    1  0.000  0.000  0.000  0.000
    2  0.000  0.000  0.000  0.000
tot    0.000  0.000  0.000  0.000
 
band    23 # energy    2.90964207 # occ.  0.00000000
 
ion      s      p      d    tot
    1  0.000  0.000  0.000  0.000
    2  0.000  0.000  0.000  0.000
tot    0.000  0.000  0.000  0.000
 
band    24 # energy    2.91461682 # occ.  0.00000000
 
ion      s      p      d    tot
    1  0.000  0.000  0.000  0.000
    2  0.000  0.000  0.000  0.000
tot    0.000  0.000  0.000  0.000
 
band    25 # energy    2.91461682 # occ.  0.00000000
 
ion      s      p      d    tot
    1  0.000  0.000  0.000  0.000
    2  0.000  0.000  0.000  0.000
tot    0.000  0.000  0.000  0.000
 
band    26 # energy    3.09702852 # occ.  0.00000000
 
ion      s      p      d    tot
    1  0.007  0.004  0.000  0.010
    2  0.007  0.004  0.000  0.010
tot    0.013  0.007  0.000  0.020
 
band    27 # energy    4.15791380 # occ.  0.00000000
 
ion      s      p      d    tot
    1  0.000  0.000  0.000  0.000
    2  0.000  0.000  0.000  0.000
tot    0.000  0.000  0.000  0.000
 
band    28 # energy    4.28878832 # occ.  0.00000000
 
ion      s      p      d    tot
    1  0.000  0.008  0.000  0.008
    2  0.000  0.008  0.000  0.008
tot    0.000  0.016  0.000  0.016
 
band    29 # energy    4.28878832 # occ.  0.00000000
 
ion      s      p      d    tot
    1  0.000  0.008  0.000  0.008
    2  0.000  0.008  0.000  0.008
tot    0.000  0.016  0.000  0.016
 
band    30 # energy    4.30406956 # occ.  0.00000000
 
ion      s      p      d    tot
    1  0.000  0.003  0.000  0.003
    2  0.000  0.003  0.000  0.003
tot    0.000  0.006  0.000  0.006
 
band    31 # energy    4.30406956 # occ.  0.00000000
 
ion      s      p      d    tot
    1  0.000  0.003  0.000  0.003
    2  0.000  0.003  0.000  0.003
tot    0.000  0.006  0.000  0.006
 
band    32 # energy    4.31261295 # occ.  0.00000000
 
ion      s      p      d    tot
    1  0.003  0.000  0.000  0.003
    2  0.003  0.000  0.000  0.003
tot    0.006  0.000  0.000  0.006
 
