Job started on p-sc-2045 at Sat Apr 20 16:34:41 EDT 2024
Start: Sat Apr 20 16:34:41 EDT 2024
 running on   32 total cores
 distrk:  each k-point on   32 cores,    1 groups
 distr:  one band on    1 cores,   32 groups
 vasp.6.3.1 04May22 (build Jun 07 2022 20:23:04) complex                        
  
 POSCAR found type information on POSCAR N 
 POSCAR found :  1 types and       2 ions
 Reading from existing POTCAR
 scaLAPACK will be used
 -----------------------------------------------------------------------------
|                                                                             |
|           W    W    AA    RRRRR   N    N  II  N    N   GGGG   !!!           |
|           W    W   A  A   R    R  NN   N  II  NN   N  G    G  !!!           |
|           W    W  A    A  R    R  N N  N  II  N N  N  G       !!!           |
|           W WW W  AAAAAA  RRRRR   N  N N  II  N  N N  G  GGG   !            |
|           WW  WW  A    A  R   R   N   NN  II  N   NN  G    G                |
|           W    W  A    A  R    R  N    N  II  N    N   GGGG   !!!           |
|                                                                             |
|     For optimal performance we recommend to set                             |
|       NCORE = 2 up to number-of-cores-per-socket                            |
|     NCORE specifies how many cores store one orbital (NPAR=cpu/NCORE).      |
|     This setting can greatly improve the performance of VASP for DFT.       |
|     The default, NCORE=1 might be grossly inefficient on modern             |
|     multi-core architectures or massively parallel machines. Do your        |
|     own testing! More info at https://www.vasp.at/wiki/index.php/NCORE      |
|     Unfortunately you need to use the default for GW and RPA                |
|     calculations (for HF NCORE is supported but not extensively tested      |
|     yet).                                                                   |
|                                                                             |
 -----------------------------------------------------------------------------

 Reading from existing POTCAR
 LDA part: xc-table for Pade appr. of Perdew
 POSCAR found type information on POSCAR N 
 POSCAR found :  1 types and       2 ions
 POSCAR, INCAR and KPOINTS ok, starting setup
 FFT: planning ... GRIDC
 FFT: planning ... GRID_SOFT
 FFT: planning ... GRID
 WAVECAR not read
 entering main loop
       N       E                     dE             d eps       ncg     rms          rms(c)
DAV:   1     0.727422815023E+02    0.72742E+02   -0.22958E+03    64   0.132E+02
DAV:   2    -0.154680231531E+02   -0.88210E+02   -0.88210E+02    96   0.387E+01
DAV:   3    -0.174544789822E+02   -0.19865E+01   -0.19865E+01    64   0.120E+01
DAV:   4    -0.174645595666E+02   -0.10081E-01   -0.10081E-01    64   0.104E+00
DAV:   5    -0.174646146522E+02   -0.55086E-04   -0.55086E-04    64   0.727E-02    0.800E+00
DAV:   6    -0.167696899339E+02    0.69492E+00   -0.10439E+00   128   0.227E+00    0.457E+00
DAV:   7    -0.166029505573E+02    0.16674E+00   -0.70002E-01    64   0.187E+00    0.113E+00
DAV:   8    -0.165964911437E+02    0.64594E-02   -0.36017E-02    64   0.425E-01    0.109E-01
DAV:   9    -0.165968083961E+02   -0.31725E-03   -0.58254E-04    64   0.567E-02    0.533E-02
DAV:  10    -0.165984528251E+02   -0.16444E-02   -0.65621E-04    64   0.407E-02    0.270E-02
DAV:  11    -0.165990611663E+02   -0.60834E-03   -0.70305E-05    64   0.176E-02    0.167E-02
DAV:  12    -0.166001353432E+02   -0.10742E-02   -0.15541E-04    64   0.176E-02    0.764E-03
DAV:  13    -0.166005214253E+02   -0.38608E-03   -0.28067E-05   128   0.867E-03    0.451E-03
DAV:  14    -0.166007749019E+02   -0.25348E-03   -0.21566E-05    64   0.705E-03    0.140E-03
DAV:  15    -0.166008444736E+02   -0.69572E-04   -0.31055E-06    64   0.284E-03    0.172E-03
DAV:  16    -0.166008471608E+02   -0.26872E-05   -0.17257E-07    64   0.797E-04    0.686E-04
DAV:  17    -0.166008542419E+02   -0.70811E-05   -0.19139E-07    64   0.803E-04    0.276E-04
DAV:  18    -0.166008544492E+02   -0.20725E-06   -0.73266E-09    64   0.197E-04    0.180E-04
DAV:  19    -0.166008553810E+02   -0.93187E-06   -0.23047E-08    64   0.273E-04    0.629E-05
DAV:  20    -0.166008554348E+02   -0.53818E-07   -0.82423E-11    64   0.270E-05
   1 F= -.16600855E+02 E0= -.16600855E+02  d E =-.166009E+02
 curvature:   0.00 expect dE= 0.000E+00 dE for cont linesearch  0.000E+00
 trial: gam= 0.00000 g(F)=  0.549E+00 g(S)=  0.000E+00 ort = 0.000E+00 (trialstep = 0.100E+01)
 search vector abs. value=  0.549E+00
 bond charge predicted
       N       E                     dE             d eps       ncg     rms          rms(c)
DAV:   1    -0.148516729139E+02    0.17492E+01   -0.13520E+02    64   0.317E+01    0.444E+00
DAV:   2    -0.145780939739E+02    0.27358E+00   -0.78679E-01   128   0.218E+00    0.223E+00
DAV:   3    -0.145394902240E+02    0.38604E-01   -0.22929E-01   128   0.103E+00    0.744E-01
DAV:   4    -0.145403557135E+02   -0.86549E-03   -0.26416E-03    64   0.115E-01    0.504E-02
DAV:   5    -0.145404723627E+02   -0.11665E-03   -0.29090E-04    64   0.399E-02    0.199E-02
DAV:   6    -0.145407462710E+02   -0.27391E-03   -0.87370E-05    64   0.179E-02    0.854E-03
DAV:   7    -0.145408512996E+02   -0.10503E-03   -0.84375E-06    64   0.571E-03    0.535E-03
DAV:   8    -0.145409845337E+02   -0.13323E-03   -0.20603E-05    64   0.669E-03    0.323E-03
DAV:   9    -0.145410512527E+02   -0.66719E-04   -0.45136E-06    64   0.335E-03    0.135E-03
DAV:  10    -0.145410728585E+02   -0.21606E-04   -0.89877E-07    64   0.144E-03    0.114E-03
DAV:  11    -0.145410855075E+02   -0.12649E-04   -0.70252E-07    64   0.110E-03    0.450E-04
DAV:  12    -0.145410908041E+02   -0.52966E-05   -0.92518E-08    64   0.442E-04    0.158E-04
DAV:  13    -0.145410919242E+02   -0.11201E-05   -0.97669E-09    64   0.161E-04    0.114E-04
DAV:  14    -0.145410924745E+02   -0.55028E-06   -0.12972E-08    64   0.161E-04    0.341E-05
DAV:  15    -0.145410924999E+02   -0.25371E-07   -0.43215E-10    96   0.357E-05
   2 F= -.14541092E+02 E0= -.14541092E+02  d E =0.205976E+01
 trial-energy change:    2.059763  1 .order    1.408078   -0.549102    3.365258
 step:   0.0728(harm=  0.1403)  dis= 0.00838  next Energy=   -16.620599 (dE=-0.197E-01)
 bond charge predicted
       N       E                     dE             d eps       ncg     rms          rms(c)
DAV:   1    -0.168180459067E+02   -0.22770E+01   -0.11496E+02    64   0.288E+01    0.462E+00
DAV:   2    -0.166647562400E+02    0.15329E+00   -0.95989E-01    64   0.301E+00    0.192E+00
DAV:   3    -0.166153342232E+02    0.49422E-01   -0.23862E-01    64   0.110E+00    0.655E-01
DAV:   4    -0.166162421652E+02   -0.90794E-03   -0.24183E-03    64   0.160E-01    0.380E-01
DAV:   5    -0.166169037858E+02   -0.66162E-03   -0.17644E-03    64   0.835E-02    0.234E-02
DAV:   6    -0.166171339788E+02   -0.23019E-03   -0.32975E-05    64   0.153E-02    0.138E-02
DAV:   7    -0.166175397701E+02   -0.40579E-03   -0.44777E-05    64   0.103E-02    0.651E-03
DAV:   8    -0.166177851701E+02   -0.24540E-03   -0.14935E-05    64   0.602E-03    0.273E-03
DAV:   9    -0.166179543010E+02   -0.16913E-03   -0.14761E-05    64   0.517E-03    0.210E-03
DAV:  10    -0.166180180220E+02   -0.63721E-04   -0.22107E-06    64   0.267E-03    0.163E-03
DAV:  11    -0.166180347729E+02   -0.16751E-04   -0.50695E-07    64   0.117E-03    0.703E-04
DAV:  12    -0.166180446723E+02   -0.98994E-05   -0.22875E-07    64   0.745E-04    0.203E-04
DAV:  13    -0.166180480262E+02   -0.33538E-05   -0.54440E-08    64   0.404E-04    0.835E-05
DAV:  14    -0.166180485336E+02   -0.50748E-06   -0.50296E-09    64   0.130E-04    0.463E-05
DAV:  15    -0.166180488138E+02   -0.28019E-06   -0.40779E-09    64   0.115E-04    0.106E-05
DAV:  16    -0.166180488322E+02   -0.18402E-07   -0.62776E-11    64   0.230E-05
   3 F= -.16618049E+02 E0= -.16618049E+02  d E =-.171934E-01
 curvature:  -0.07 expect dE=-0.521E-03 dE for cont linesearch -0.521E-03
 ZBRENT: interpolating
 opt :   0.0652  next Energy=   -16.618292 (dE=-0.174E-01)
 bond charge predicted
       N       E                     dE             d eps       ncg     rms          rms(c)
DAV:   1    -0.166183344058E+02   -0.28559E-03   -0.83876E-03    64   0.257E-01    0.419E-02
DAV:   2    -0.166183101646E+02    0.24241E-04   -0.85485E-05    64   0.248E-02    0.198E-02
DAV:   3    -0.166183053777E+02    0.47869E-05   -0.29334E-05    64   0.126E-02    0.635E-03
DAV:   4    -0.166183054742E+02   -0.96539E-07   -0.24966E-07    64   0.161E-03
   4 F= -.16618305E+02 E0= -.16618305E+02  d E =-.174500E-01
 curvature:  -0.03 expect dE=-0.698E-06 dE for cont linesearch -0.698E-06
 ZBRENT: interpolating
 opt :   0.0648  next Energy=   -16.618306 (dE=-0.175E-01)
 bond charge predicted
       N       E                     dE             d eps       ncg     rms          rms(c)
DAV:   1    -0.166183064233E+02   -0.10456E-05   -0.27511E-05    64   0.145E-02    0.222E-03
DAV:   2    -0.166183064052E+02    0.18091E-07   -0.26733E-07    64   0.134E-03
   5 F= -.16618306E+02 E0= -.16618306E+02  d E =-.174510E-01
 curvature:  -0.03 expect dE=-0.893E-08 dE for cont linesearch -0.893E-08
 trial: gam= 0.00000 g(F)=  0.259E-06 g(S)=  0.000E+00 ort =-0.377E-03 (trialstep = 0.813E+00)
 search vector abs. value=  0.259E-06
 reached required accuracy - stopping structural energy minimisation
End: Sat Apr 20 16:34:50 EDT 2024
