<?xml version="1.0" encoding="ISO-8859-1"?>
<modeling>
 <generator>
  <i name="program" type="string">vasp </i>
  <i name="version" type="string">6.3.1  </i>
  <i name="subversion" type="string">04May22 (build Jun 07 2022 20:23:04) complex                          parallel </i>
  <i name="platform" type="string">LinuxIFC </i>
  <i name="date" type="string">2024 04 20 </i>
  <i name="time" type="string">16:34:42 </i>
 </generator>
 <incar>
  <i type="string" name="PREC">Normal</i>
  <i type="string" name="ALGO">Normal</i>
  <i type="int" name="NELM">   100</i>
  <i type="int" name="IBRION">     2</i>
  <i name="EDIFF">      0.00000010</i>
  <i name="EDIFFG">     -0.00500000</i>
  <i type="int" name="NSW">    20</i>
  <i type="int" name="ISIF">     2</i>
  <i name="ENCUT">    400.00000000</i>
  <i type="logical" name="LREAL"> F  </i>
  <i type="int" name="ISMEAR">     0</i>
  <i name="SIGMA">      0.10000000</i>
  <i type="logical" name="LWAVE"> F  </i>
  <i type="logical" name="LCHARG"> F  </i>
  <i type="int" name="LORBIT">    10</i>
  <i type="logical" name="LASPH"> T  </i>
 </incar>
 <primitive_cell>
  <structure name="primitive_cell" >
   <crystal>
    <varray name="basis" >
     <v>      10.00000000       0.00000000       0.00000000 </v>
     <v>       0.00000000      10.00000000       0.00000000 </v>
     <v>       0.00000000       0.00000000      10.00000000 </v>
    </varray>
    <i name="volume">   1000.00000000 </i>
    <varray name="rec_basis" >
     <v>       0.10000000       0.00000000       0.00000000 </v>
     <v>       0.00000000       0.10000000       0.00000000 </v>
     <v>       0.00000000       0.00000000       0.10000000 </v>
    </varray>
   </crystal>
   <varray name="positions" >
    <v>       0.44488280       0.00000000       0.00000000 </v>
    <v>       0.55511720       0.00000000       0.00000000 </v>
   </varray>
  </structure>
  <varray name="primitive_index" >
   <v type="int" >        1 </v>
   <v type="int" >        2 </v>
  </varray>
 </primitive_cell>
 <kpoints>
  <generation param="Gamma">
   <v type="int" name="divisions">       1        1        1 </v>
   <v name="usershift">      0.00000000       0.00000000       0.00000000 </v>
   <v name="genvec1">      1.00000000       0.00000000       0.00000000 </v>
   <v name="genvec2">      0.00000000       1.00000000       0.00000000 </v>
   <v name="genvec3">      0.00000000       0.00000000       1.00000000 </v>
   <v name="shift">      0.00000000       0.00000000       0.00000000 </v>
  </generation>
  <varray name="kpointlist" >
   <v>       0.00000000       0.00000000       0.00000000 </v>
  </varray>
  <varray name="weights" >
   <v>       1.00000000 </v>
  </varray>
 </kpoints>
 <parameters>
  <separator name="general" >
   <i type="string" name="SYSTEM">unknown system</i>
   <i type="logical" name="LCOMPAT"> F  </i>
  </separator>
  <separator name="electronic" >
   <i type="string" name="PREC">normal</i>
   <i name="ENMAX">    400.00000000</i>
   <i name="ENAUG">    627.11200000</i>
   <i name="EDIFF">      0.00000010</i>
   <i type="int" name="IALGO">    38</i>
   <i type="int" name="IWAVPR">    11</i>
   <i type="int" name="NBANDS">    32</i>
   <i type="int" name="NBANDSLOW">    -1</i>
   <i type="int" name="NBANDSHIGH">    -1</i>
   <i name="NELECT">     10.00000000</i>
   <i type="int" name="TURBO">     0</i>
   <i type="int" name="IRESTART">     0</i>
   <i type="int" name="NREBOOT">     0</i>
   <i type="int" name="NMIN">     0</i>
   <i name="EREF">      0.00000000</i>
   <separator name="electronic smearing" >
    <i type="int" name="ISMEAR">     0</i>
    <i name="SIGMA">      0.10000000</i>
    <i name="KSPACING">      0.50000000</i>
    <i type="logical" name="KGAMMA"> T  </i>
    <i type="logical" name="KBLOWUP"> T  </i>
   </separator>
   <separator name="electronic projectors" >
    <i type="logical" name="LREAL"> F  </i>
    <v name="ROPT">      0.00000000</v>
    <i type="int" name="LMAXPAW">  -100</i>
    <i type="int" name="LMAXMIX">     2</i>
    <i type="logical" name="NLSPLINE"> F  </i>
   </separator>
   <separator name="electronic startup" >
    <i type="int" name="ISTART">     0</i>
    <i type="int" name="ICHARG">     2</i>
    <i type="int" name="INIWAV">     1</i>
   </separator>
   <separator name="electronic spin" >
    <i type="int" name="ISPIN">     1</i>
    <i type="logical" name="LNONCOLLINEAR"> F  </i>
    <v name="MAGMOM">      1.00000000      1.00000000</v>
    <i name="NUPDOWN">     -1.00000000</i>
    <i type="logical" name="LSORBIT"> F  </i>
    <v name="SAXIS">      0.00000000      0.00000000      1.00000000</v>
    <i type="logical" name="LSPIRAL"> F  </i>
    <v name="QSPIRAL">      0.00000000      0.00000000      0.00000000</v>
    <i type="logical" name="LZEROZ"> F  </i>
   </separator>
   <separator name="electronic exchange-correlation" >
    <i type="logical" name="LASPH"> T  </i>
    <i type="logical" name="LMETAGGA"> F  </i>
   </separator>
   <separator name="electronic convergence" >
    <i type="int" name="NELM">   100</i>
    <i type="int" name="NELMDL">    -5</i>
    <i type="int" name="NELMIN">     2</i>
    <i name="ENINI">    400.00000000</i>
    <separator name="electronic convergence detail" >
     <i type="logical" name="LDIAG"> T  </i>
     <i type="logical" name="LSUBROT"> F  </i>
     <i name="WEIMIN">      0.00100000</i>
     <i name="EBREAK">      0.00000000</i>
     <i name="DEPER">      0.30000000</i>
     <i type="int" name="NRMM">     4</i>
     <i name="TIME">      0.40000000</i>
    </separator>
   </separator>
   <separator name="electronic mixer" >
    <i name="AMIX">      0.40000000</i>
    <i name="BMIX">      1.00000000</i>
    <i name="AMIN">      0.10000000</i>
    <i name="AMIX_MAG">      1.60000000</i>
    <i name="BMIX_MAG">      1.00000000</i>
    <separator name="electronic mixer details" >
     <i type="int" name="IMIX">     4</i>
     <i type="logical" name="MIXFIRST"> F  </i>
     <i type="int" name="MAXMIX">   -45</i>
     <i name="WC">    100.00000000</i>
     <i type="int" name="INIMIX">     1</i>
     <i type="int" name="MIXPRE">     1</i>
     <i type="int" name="MREMOVE">     5</i>
    </separator>
   </separator>
   <separator name="electronic dipolcorrection" >
    <i type="logical" name="LDIPOL"> F  </i>
    <i type="logical" name="LMONO"> F  </i>
    <i type="int" name="IDIPOL">     0</i>
    <i name="EPSILON">      1.00000000</i>
    <v name="DIPOL">   -100.00000000   -100.00000000   -100.00000000</v>
    <i name="EFIELD">      0.00000000</i>
   </separator>
  </separator>
  <separator name="grids" >
   <i type="int" name="NGX">    50</i>
   <i type="int" name="NGY">    50</i>
   <i type="int" name="NGZ">    50</i>
   <i type="int" name="NGXF">   100</i>
   <i type="int" name="NGYF">   100</i>
   <i type="int" name="NGZF">   100</i>
   <i type="logical" name="ADDGRID"> F  </i>
  </separator>
  <separator name="ionic" >
   <i type="int" name="NSW">    20</i>
   <i type="int" name="IBRION">     2</i>
   <i type="int" name="MDALGO">     0</i>
   <i type="int" name="ISIF">     2</i>
   <i name="PSTRESS">      0.00000000</i>
   <i name="EDIFFG">     -0.00500000</i>
   <i type="int" name="NFREE">     1</i>
   <i name="POTIM">      0.50000000</i>
   <i name="SMASS">     -3.00000000</i>
   <i name="SCALEE">      1.00000000</i>
  </separator>
  <separator name="ionic md" >
   <i name="TEBEG">      0.00010000</i>
   <i name="TEEND">      0.00010000</i>
   <i type="int" name="NBLOCK">     1</i>
   <i type="int" name="KBLOCK">    20</i>
   <i type="int" name="NPACO">   256</i>
   <i name="APACO">     10.00000000</i>
  </separator>
  <separator name="symmetry" >
   <i type="int" name="ISYM">     2</i>
   <i name="SYMPREC">      0.00001000</i>
  </separator>
  <separator name="dos" >
   <i type="int" name="LORBIT">    10</i>
   <v name="RWIGS">     -1.00000000</v>
   <i type="int" name="NEDOS">   301</i>
   <i name="EMIN">     10.00000000</i>
   <i name="EMAX">    -10.00000000</i>
   <i name="EFERMI">      0.00000000</i>
  </separator>
  <separator name="writing" >
   <i type="int" name="NWRITE">     2</i>
   <i type="logical" name="LWAVE"> F  </i>
   <i type="logical" name="LDOWNSAMPLE"> F  </i>
   <i type="logical" name="LCHARG"> F  </i>
   <i type="logical" name="LPARD"> F  </i>
   <i type="logical" name="LVTOT"> F  </i>
   <i type="logical" name="LVHAR"> F  </i>
   <i type="logical" name="LELF"> F  </i>
   <i type="logical" name="LOPTICS"> F  </i>
   <v name="STM">      0.00000000      0.00000000      0.00000000      0.00000000      0.00000000      0.00000000      0.00000000</v>
  </separator>
  <separator name="performance" >
   <i type="int" name="NPAR">    32</i>
   <i type="int" name="NSIM">     4</i>
   <i type="int" name="NBLK">    -1</i>
   <i type="logical" name="LPLANE"> T  </i>
   <i type="logical" name="LSCALAPACK"> T  </i>
   <i type="logical" name="LSCAAWARE"> F  </i>
   <i type="logical" name="LSCALU"> F  </i>
   <i type="logical" name="LASYNC"> F  </i>
   <i type="logical" name="LORBITALREAL"> F  </i>
  </separator>
  <separator name="miscellaneous" >
   <i type="int" name="IDIOT">     3</i>
   <i type="int" name="PHON_NSTRUCT">    -1</i>
   <i type="logical" name="LMUSIC"> F  </i>
   <v name="POMASS">     14.00100000</v>
   <v name="DARWINR">      0.00000000</v>
   <v name="DARWINV">      1.00000000</v>
   <i type="logical" name="LCORR"> T  </i>
  </separator>
  <i type="logical" name="GGA_COMPAT"> T  </i>
  <i type="logical" name="LBERRY"> F  </i>
  <i type="int" name="ICORELEVEL">     0</i>
  <i type="logical" name="LDAU"> F  </i>
  <i type="int" name="I_CONSTRAINED_M">     0</i>
  <separator name="electronic exchange-correlation" >
   <i type="string" name="GGA">--</i>
   <i type="int" name="VOSKOWN">     0</i>
   <i type="logical" name="LHFCALC"> F  </i>
   <i type="string" name="PRECFOCK"></i>
   <i type="logical" name="LSYMGRAD"> F  </i>
   <i type="logical" name="LHFONE"> F  </i>
   <i type="logical" name="LRHFCALC"> F  </i>
   <i type="logical" name="LTHOMAS"> F  </i>
   <i type="logical" name="LMODELHF"> F  </i>
   <i type="logical" name="LFOCKACE"> F  </i>
   <i name="ENCUT4O">     -1.00000000</i>
   <i type="int" name="EXXOEP">     0</i>
   <i type="int" name="FOURORBIT">     0</i>
   <i name="AEXX">      0.00000000</i>
   <i name="HFALPHA">      0.00000000</i>
   <i name="MCALPHA">      0.00000000</i>
   <i name="ALDAX">      1.00000000</i>
   <i name="AGGAX">      1.00000000</i>
   <i name="ALDAC">      1.00000000</i>
   <i name="AGGAC">      1.00000000</i>
   <i type="int" name="NKREDX">     1</i>
   <i type="int" name="NKREDY">     1</i>
   <i type="int" name="NKREDZ">     1</i>
   <i type="logical" name="SHIFTRED"> F  </i>
   <i type="logical" name="ODDONLY"> F  </i>
   <i type="logical" name="EVENONLY"> F  </i>
   <i type="int" name="LMAXFOCK">     0</i>
   <i type="int" name="NMAXFOCKAE">     0</i>
   <i type="logical" name="LFOCKAEDFT"> F  </i>
   <i name="HFSCREEN">      0.00000000</i>
   <i name="HFSCREENC">      0.00000000</i>
   <i type="int" name="NBANDSGWLOW">     0</i>
  </separator>
  <separator name="vdW DFT" >
   <i type="logical" name="LUSE_VDW"> F  </i>
   <i name="Zab_VDW">     -0.84910000</i>
   <i name="PARAM1">      0.12340000</i>
   <i name="PARAM2">      1.00000000</i>
   <i name="PARAM3">      0.00000000</i>
  </separator>
  <separator name="model GW" >
   <i type="int" name="MODEL_GW">     0</i>
   <i name="MODEL_EPS0">    300.00000000</i>
   <i name="MODEL_ALPHA">      1.00000000</i>
  </separator>
  <separator name="linear response parameters" >
   <i type="logical" name="LEPSILON"> F  </i>
   <i type="logical" name="LRPA"> F  </i>
   <i type="logical" name="LNABLA"> F  </i>
   <i type="logical" name="LVEL"> F  </i>
   <i name="CSHIFT">      0.10000000</i>
   <i name="OMEGAMAX">     -1.00000000</i>
   <i name="DEG_THRESHOLD">      0.00200000</i>
   <i name="RTIME">     -0.10000000</i>
   <i name="WPLASMAI">      0.00000000</i>
   <v name="DFIELD">      0.00000000      0.00000000      0.00000000</v>
   <v name="WPLASMA">      0.00000000      0.00000000      0.00000000      0.00000000      0.00000000      0.00000000      0.00000000      0.00000000      0.00000000</v>
  </separator>
  <separator name="orbital magnetization" >
   <i type="logical" name="NUCIND"> F  </i>
   <v name="MAGPOS">      0.00000000      0.00000000      0.00000000</v>
   <i type="logical" name="LNICSALL"> T  </i>
   <i type="logical" name="ORBITALMAG"> F  </i>
   <i type="logical" name="LMAGBLOCH"> F  </i>
   <i type="logical" name="LCHIMAG"> F  </i>
   <i type="logical" name="LGAUGE"> T  </i>
   <i type="int" name="MAGATOM">     0</i>
   <v name="MAGDIPOL">      0.00000000      0.00000000      0.00000000</v>
   <v name="AVECCONST">      0.00000000      0.00000000      0.00000000</v>
  </separator>
  <separator name="response functions" >
   <i type="logical" name="LFINITE_TEMPERATURE"> F  </i>
   <i type="logical" name="LADDER"> F  </i>
   <i type="logical" name="LRPAFORCE"> F  </i>
   <i type="logical" name="LFXC"> F  </i>
   <i type="logical" name="LHARTREE"> T  </i>
   <i type="int" name="IBSE">     0</i>
   <v type="int" name="KPOINT">    -1     0     0     0</v>
   <i type="logical" name="LTCTC"> F  </i>
   <i type="logical" name="LTCTE"> F  </i>
   <i type="logical" name="LTETE"> F  </i>
   <i type="logical" name="LTRIPLET"> F  </i>
   <i type="logical" name="LFXCEPS"> F  </i>
   <i type="logical" name="LFXHEG"> F  </i>
   <i type="int" name="NATURALO">     2</i>
   <i type="logical" name="LHOLEGF"> F  </i>
   <i type="logical" name="L2ORDER"> F  </i>
   <i type="logical" name="LDMP1"> F  </i>
   <i type="logical" name="LMP2LT"> F  </i>
   <i type="logical" name="LSMP2LT"> F  </i>
   <i type="logical" name="LGWLF"> F  </i>
   <i name="ENCUTGW">     -2.00000000</i>
   <i name="ENCUTGWSOFT">     -2.00000000</i>
   <i name="ENCUTLF">     -1.00000000</i>
   <i type="logical" name="LESF_SPLINES"> F  </i>
   <i type="int" name="LMAXMP2">    -1</i>
   <i name="SCISSOR">      0.00000000</i>
   <i type="int" name="NOMEGA">     0</i>
   <i type="int" name="NOMEGAR">     0</i>
   <i type="int" name="NBANDSGW">    -1</i>
   <i type="int" name="NBANDSO">    -1</i>
   <i type="int" name="NBANDSV">    -1</i>
   <i type="int" name="NELMGW">     1</i>
   <i type="int" name="NELMHF">     1</i>
   <i type="int" name="DIM">     3</i>
   <i type="int" name="IESPILON">     4</i>
   <i type="int" name="ANTIRES">     0</i>
   <i name="OMEGAMAX">    -30.00000000</i>
   <i name="OMEGAMIN">    -30.00000000</i>
   <i name="OMEGATL">   -200.00000000</i>
   <i type="int" name="OMEGAGRID">     0</i>
   <i name="CSHIFT">     -0.10000000</i>
   <i type="logical" name="LSELFENERGY"> F  </i>
   <i type="logical" name="LSPECTRAL"> F  </i>
   <i type="logical" name="LSPECTRALGW"> F  </i>
   <i type="logical" name="LSINGLES"> F  </i>
   <i type="logical" name="LFERMIGW"> F  </i>
   <i type="logical" name="ODDONLYGW"> F  </i>
   <i type="logical" name="EVENONLYGW"> F  </i>
   <i type="int" name="NKREDLFX">     1</i>
   <i type="int" name="NKREDLFY">     1</i>
   <i type="int" name="NKREDLFZ">     1</i>
   <i type="int" name="MAXMEM">  2800</i>
   <i type="int" name="TELESCOPE">     0</i>
   <i type="int" name="NTAUPAR">    -1</i>
   <i type="int" name="NOMEGAPAR">    -1</i>
   <i name="DAMP_NEWTON">      0.80000001</i>
   <i name="LAMBDA">      1.00000000</i>
  </separator>
  <separator name="External order field" >
   <i name="OFIELD_KAPPA">      0.00000000</i>
   <v name="OFIELD_K">      0.00000000      0.00000000      0.00000000</v>
   <i name="OFIELD_Q6_NEAR">      0.00000000</i>
   <i name="OFIELD_Q6_FAR">      0.00000000</i>
   <i name="OFIELD_A">      0.00000000</i>
  </separator>
  <separator name="optional k-points parameters" >
   <i type="int" name="KPOINTS_OPT_MODE">     1</i>
   <i type="logical" name="LKPOINTS_OPT"> F  </i>
  </separator>
 </parameters>
 <atominfo>
  <atoms>       2 </atoms>
  <types>       1 </types>
  <array name="atoms" >
   <dimension dim="1">ion</dimension>
   <field type="string">element</field>
   <field type="int">atomtype</field>
   <set>
    <rc><c>N </c><c>   1</c></rc>
    <rc><c>N </c><c>   1</c></rc>
   </set>
  </array>
  <array name="atomtypes" >
   <dimension dim="1">type</dimension>
   <field type="int">atomspertype</field>
   <field type="string">element</field>
   <field>mass</field>
   <field>valence</field>
   <field type="string">pseudopotential</field>
   <set>
    <rc><c>   2</c><c>N </c><c>     14.00100000</c><c>      5.00000000</c><c>  PAW_PBE N 08Apr2002                   </c></rc>
   </set>
  </array>
 </atominfo>
 <structure name="initialpos" >
  <crystal>
   <varray name="basis" >
    <v>      10.00000000       0.00000000       0.00000000 </v>
    <v>       0.00000000      10.00000000       0.00000000 </v>
    <v>       0.00000000       0.00000000      10.00000000 </v>
   </varray>
   <i name="volume">   1000.00000000 </i>
   <varray name="rec_basis" >
    <v>       0.10000000       0.00000000       0.00000000 </v>
    <v>       0.00000000       0.10000000       0.00000000 </v>
    <v>       0.00000000       0.00000000       0.10000000 </v>
   </varray>
  </crystal>
  <varray name="positions" >
   <v>       0.44488280       0.00000000       0.00000000 </v>
   <v>       0.55511720       0.00000000       0.00000000 </v>
  </varray>
 </structure>
 <calculation>
  <scstep>
   <time name="dav">    0.04    0.04</time>
   <time name="total">    0.10    0.10</time>
   <energy>
    <i name="alphaZ">      0.43098392 </i>
    <i name="ewald">    123.22237935 </i>
    <i name="hartreedc">   -535.24416299 </i>
    <i name="XCdc">     38.05121023 </i>
    <i name="pawpsdc">    409.86546322 </i>
    <i name="pawaedc">   -412.24743141 </i>
    <i name="eentropy">     -0.00000000 </i>
    <i name="bandstr">    -80.28616566 </i>
    <i name="atom">    528.95000483 </i>
    <i name="e_fr_energy">     72.74228150 </i>
    <i name="e_wo_entrp">     72.74228150 </i>
    <i name="e_0_energy">     72.74228150 </i>
   </energy>
  </scstep>
  <scstep>
   <time name="dav">    0.05    0.05</time>
   <time name="total">    0.05    0.05</time>
   <energy>
    <i name="e_fr_energy">    -15.46802315 </i>
    <i name="e_wo_entrp">    -15.46802315 </i>
    <i name="e_0_energy">    -15.46802315 </i>
   </energy>
  </scstep>
  <scstep>
   <time name="dav">    0.03    0.03</time>
   <time name="total">    0.03    0.03</time>
   <energy>
    <i name="e_fr_energy">    -17.45447898 </i>
    <i name="e_wo_entrp">    -17.45447898 </i>
    <i name="e_0_energy">    -17.45447898 </i>
   </energy>
  </scstep>
  <scstep>
   <time name="dav">    0.03    0.03</time>
   <time name="total">    0.03    0.03</time>
   <energy>
    <i name="e_fr_energy">    -17.46455957 </i>
    <i name="e_wo_entrp">    -17.46455957 </i>
    <i name="e_0_energy">    -17.46455957 </i>
   </energy>
  </scstep>
  <scstep>
   <time name="dav">    0.03    0.03</time>
   <time name="total">    0.05    0.05</time>
   <energy>
    <i name="e_fr_energy">    -17.46461465 </i>
    <i name="e_wo_entrp">    -17.46461465 </i>
    <i name="e_0_energy">    -17.46461465 </i>
   </energy>
  </scstep>
  <scstep>
   <time name="dav">    0.06    0.07</time>
   <time name="total">    0.14    0.14</time>
   <energy>
    <i name="e_fr_energy">    -16.76968993 </i>
    <i name="e_wo_entrp">    -16.76968993 </i>
    <i name="e_0_energy">    -16.76968993 </i>
   </energy>
  </scstep>
  <scstep>
   <time name="dav">    0.03    0.03</time>
   <time name="total">    0.10    0.10</time>
   <energy>
    <i name="e_fr_energy">    -16.60295056 </i>
    <i name="e_wo_entrp">    -16.60295056 </i>
    <i name="e_0_energy">    -16.60295056 </i>
   </energy>
  </scstep>
  <scstep>
   <time name="dav">    0.03    0.04</time>
   <time name="total">    0.11    0.11</time>
   <energy>
    <i name="e_fr_energy">    -16.59649114 </i>
    <i name="e_wo_entrp">    -16.59649114 </i>
    <i name="e_0_energy">    -16.59649114 </i>
   </energy>
  </scstep>
  <scstep>
   <time name="dav">    0.03    0.03</time>
   <time name="total">    0.10    0.10</time>
   <energy>
    <i name="e_fr_energy">    -16.59680840 </i>
    <i name="e_wo_entrp">    -16.59680840 </i>
    <i name="e_0_energy">    -16.59680840 </i>
   </energy>
  </scstep>
  <scstep>
   <time name="dav">    0.03    0.03</time>
   <time name="total">    0.10    0.10</time>
   <energy>
    <i name="e_fr_energy">    -16.59845283 </i>
    <i name="e_wo_entrp">    -16.59845283 </i>
    <i name="e_0_energy">    -16.59845283 </i>
   </energy>
  </scstep>
  <scstep>
   <time name="dav">    0.03    0.03</time>
   <time name="total">    0.10    0.10</time>
   <energy>
    <i name="e_fr_energy">    -16.59906117 </i>
    <i name="e_wo_entrp">    -16.59906117 </i>
    <i name="e_0_energy">    -16.59906117 </i>
   </energy>
  </scstep>
  <scstep>
   <time name="dav">    0.03    0.03</time>
   <time name="total">    0.10    0.10</time>
   <energy>
    <i name="e_fr_energy">    -16.60013534 </i>
    <i name="e_wo_entrp">    -16.60013534 </i>
    <i name="e_0_energy">    -16.60013534 </i>
   </energy>
  </scstep>
  <scstep>
   <time name="dav">    0.06    0.07</time>
   <time name="total">    0.13    0.13</time>
   <energy>
    <i name="e_fr_energy">    -16.60052143 </i>
    <i name="e_wo_entrp">    -16.60052143 </i>
    <i name="e_0_energy">    -16.60052143 </i>
   </energy>
  </scstep>
  <scstep>
   <time name="dav">    0.03    0.03</time>
   <time name="total">    0.10    0.10</time>
   <energy>
    <i name="e_fr_energy">    -16.60077490 </i>
    <i name="e_wo_entrp">    -16.60077490 </i>
    <i name="e_0_energy">    -16.60077490 </i>
   </energy>
  </scstep>
  <scstep>
   <time name="dav">    0.03    0.03</time>
   <time name="total">    0.10    0.10</time>
   <energy>
    <i name="e_fr_energy">    -16.60084447 </i>
    <i name="e_wo_entrp">    -16.60084447 </i>
    <i name="e_0_energy">    -16.60084447 </i>
   </energy>
  </scstep>
  <scstep>
   <time name="dav">    0.03    0.03</time>
   <time name="total">    0.10    0.10</time>
   <energy>
    <i name="e_fr_energy">    -16.60084716 </i>
    <i name="e_wo_entrp">    -16.60084716 </i>
    <i name="e_0_energy">    -16.60084716 </i>
   </energy>
  </scstep>
  <scstep>
   <time name="dav">    0.03    0.03</time>
   <time name="total">    0.10    0.10</time>
   <energy>
    <i name="e_fr_energy">    -16.60085424 </i>
    <i name="e_wo_entrp">    -16.60085424 </i>
    <i name="e_0_energy">    -16.60085424 </i>
   </energy>
  </scstep>
  <scstep>
   <time name="dav">    0.03    0.03</time>
   <time name="total">    0.10    0.10</time>
   <energy>
    <i name="e_fr_energy">    -16.60085445 </i>
    <i name="e_wo_entrp">    -16.60085445 </i>
    <i name="e_0_energy">    -16.60085445 </i>
   </energy>
  </scstep>
  <scstep>
   <time name="dav">    0.03    0.03</time>
   <time name="total">    0.11    0.11</time>
   <energy>
    <i name="e_fr_energy">    -16.60085538 </i>
    <i name="e_wo_entrp">    -16.60085538 </i>
    <i name="e_0_energy">    -16.60085538 </i>
   </energy>
  </scstep>
  <scstep>
   <time name="dav">    0.03    0.03</time>
   <time name="total">    0.09    0.09</time>
   <energy>
    <i name="alphaZ">      0.43098392 </i>
    <i name="ewald">    123.22237935 </i>
    <i name="hartreedc">   -556.52467705 </i>
    <i name="XCdc">     39.30176224 </i>
    <i name="pawpsdc">    978.60178564 </i>
    <i name="pawaedc">   -981.32116271 </i>
    <i name="eentropy">     -0.00000000 </i>
    <i name="bandstr">   -149.26193165 </i>
    <i name="atom">    528.95000483 </i>
    <i name="e_fr_energy">    -16.60085543 </i>
    <i name="e_wo_entrp">    -16.60085543 </i>
    <i name="e_0_energy">    -16.60085543 </i>
   </energy>
  </scstep>
  <structure>
   <crystal>
    <varray name="basis" >
     <v>      10.00000000       0.00000000       0.00000000 </v>
     <v>       0.00000000      10.00000000       0.00000000 </v>
     <v>       0.00000000       0.00000000      10.00000000 </v>
    </varray>
    <i name="volume">   1000.00000000 </i>
    <varray name="rec_basis" >
     <v>       0.10000000       0.00000000       0.00000000 </v>
     <v>       0.00000000       0.10000000       0.00000000 </v>
     <v>       0.00000000       0.00000000       0.10000000 </v>
    </varray>
   </crystal>
   <varray name="positions" >
    <v>       0.44488280       0.00000000       0.00000000 </v>
    <v>       0.55511720       0.00000000       0.00000000 </v>
   </varray>
  </structure>
  <varray name="forces" >
   <v>      -2.38559148       0.00000000      -0.00000000 </v>
   <v>       2.38559148      -0.00000000       0.00000000 </v>
  </varray>
  <varray name="stress" >
   <v>       2.05377777       0.00000000       0.00000000 </v>
   <v>      -0.00000000      -1.70884011       0.00000000 </v>
   <v>      -0.00000000       0.00000000      -1.70884011 </v>
  </varray>
  <energy>
   <i name="e_fr_energy">    -16.60085543 </i>
   <i name="e_wo_entrp">    -16.60085543 </i>
   <i name="e_0_energy">    -16.60085543 </i>
  </energy>
  <time name="totalsc">    2.01    2.03</time>
 </calculation>
 <calculation>
  <scstep>
   <time name="dav">    0.03    0.03</time>
   <time name="total">    0.10    0.10</time>
   <energy>
    <i name="alphaZ">      0.43098392 </i>
    <i name="ewald">     67.25288284 </i>
    <i name="hartreedc">   -519.39230454 </i>
    <i name="XCdc">     38.27134684 </i>
    <i name="pawpsdc">    978.59977721 </i>
    <i name="pawaedc">   -981.31915300 </i>
    <i name="eentropy">     -0.00000000 </i>
    <i name="bandstr">   -127.64521101 </i>
    <i name="atom">    528.95000483 </i>
    <i name="e_fr_energy">    -14.85167291 </i>
    <i name="e_wo_entrp">    -14.85167291 </i>
    <i name="e_0_energy">    -14.85167291 </i>
   </energy>
  </scstep>
  <scstep>
   <time name="dav">    0.06    0.06</time>
   <time name="total">    0.13    0.13</time>
   <energy>
    <i name="e_fr_energy">    -14.57809397 </i>
    <i name="e_wo_entrp">    -14.57809397 </i>
    <i name="e_0_energy">    -14.57809397 </i>
   </energy>
  </scstep>
  <scstep>
   <time name="dav">    0.06    0.06</time>
   <time name="total">    0.13    0.13</time>
   <energy>
    <i name="e_fr_energy">    -14.53949022 </i>
    <i name="e_wo_entrp">    -14.53949022 </i>
    <i name="e_0_energy">    -14.53949022 </i>
   </energy>
  </scstep>
  <scstep>
   <time name="dav">    0.03    0.03</time>
   <time name="total">    0.10    0.10</time>
   <energy>
    <i name="e_fr_energy">    -14.54035571 </i>
    <i name="e_wo_entrp">    -14.54035571 </i>
    <i name="e_0_energy">    -14.54035571 </i>
   </energy>
  </scstep>
  <scstep>
   <time name="dav">    0.03    0.03</time>
   <time name="total">    0.10    0.10</time>
   <energy>
    <i name="e_fr_energy">    -14.54047236 </i>
    <i name="e_wo_entrp">    -14.54047236 </i>
    <i name="e_0_energy">    -14.54047236 </i>
   </energy>
  </scstep>
  <scstep>
   <time name="dav">    0.03    0.03</time>
   <time name="total">    0.10    0.10</time>
   <energy>
    <i name="e_fr_energy">    -14.54074627 </i>
    <i name="e_wo_entrp">    -14.54074627 </i>
    <i name="e_0_energy">    -14.54074627 </i>
   </energy>
  </scstep>
  <scstep>
   <time name="dav">    0.03    0.03</time>
   <time name="total">    0.10    0.10</time>
   <energy>
    <i name="e_fr_energy">    -14.54085130 </i>
    <i name="e_wo_entrp">    -14.54085130 </i>
    <i name="e_0_energy">    -14.54085130 </i>
   </energy>
  </scstep>
  <scstep>
   <time name="dav">    0.03    0.03</time>
   <time name="total">    0.10    0.10</time>
   <energy>
    <i name="e_fr_energy">    -14.54098453 </i>
    <i name="e_wo_entrp">    -14.54098453 </i>
    <i name="e_0_energy">    -14.54098453 </i>
   </energy>
  </scstep>
  <scstep>
   <time name="dav">    0.03    0.03</time>
   <time name="total">    0.10    0.10</time>
   <energy>
    <i name="e_fr_energy">    -14.54105125 </i>
    <i name="e_wo_entrp">    -14.54105125 </i>
    <i name="e_0_energy">    -14.54105125 </i>
   </energy>
  </scstep>
  <scstep>
   <time name="dav">    0.03    0.03</time>
   <time name="total">    0.10    0.10</time>
   <energy>
    <i name="e_fr_energy">    -14.54107286 </i>
    <i name="e_wo_entrp">    -14.54107286 </i>
    <i name="e_0_energy">    -14.54107286 </i>
   </energy>
  </scstep>
  <scstep>
   <time name="dav">    0.03    0.03</time>
   <time name="total">    0.11    0.11</time>
   <energy>
    <i name="e_fr_energy">    -14.54108551 </i>
    <i name="e_wo_entrp">    -14.54108551 </i>
    <i name="e_0_energy">    -14.54108551 </i>
   </energy>
  </scstep>
  <scstep>
   <time name="dav">    0.03    0.03</time>
   <time name="total">    0.11    0.11</time>
   <energy>
    <i name="e_fr_energy">    -14.54109080 </i>
    <i name="e_wo_entrp">    -14.54109080 </i>
    <i name="e_0_energy">    -14.54109080 </i>
   </energy>
  </scstep>
  <scstep>
   <time name="dav">    0.03    0.03</time>
   <time name="total">    0.10    0.10</time>
   <energy>
    <i name="e_fr_energy">    -14.54109192 </i>
    <i name="e_wo_entrp">    -14.54109192 </i>
    <i name="e_0_energy">    -14.54109192 </i>
   </energy>
  </scstep>
  <scstep>
   <time name="dav">    0.03    0.03</time>
   <time name="total">    0.10    0.10</time>
   <energy>
    <i name="e_fr_energy">    -14.54109247 </i>
    <i name="e_wo_entrp">    -14.54109247 </i>
    <i name="e_0_energy">    -14.54109247 </i>
   </energy>
  </scstep>
  <scstep>
   <time name="dav">    0.05    0.05</time>
   <time name="total">    0.10    0.10</time>
   <energy>
    <i name="alphaZ">      0.43098392 </i>
    <i name="ewald">     67.25288284 </i>
    <i name="hartreedc">   -507.21067971 </i>
    <i name="XCdc">     37.54032441 </i>
    <i name="pawpsdc">    663.65823432 </i>
    <i name="pawaedc">   -666.04298996 </i>
    <i name="eentropy">     -0.00000000 </i>
    <i name="bandstr">   -139.11985315 </i>
    <i name="atom">    528.95000483 </i>
    <i name="e_fr_energy">    -14.54109250 </i>
    <i name="e_wo_entrp">    -14.54109250 </i>
    <i name="e_0_energy">    -14.54109250 </i>
   </energy>
  </scstep>
  <structure>
   <crystal>
    <varray name="basis" >
     <v>      10.00000000       0.00000000       0.00000000 </v>
     <v>       0.00000000      10.00000000       0.00000000 </v>
     <v>       0.00000000       0.00000000      10.00000000 </v>
    </varray>
    <i name="volume">   1000.00000000 </i>
    <varray name="rec_basis" >
     <v>       0.10000000       0.00000000       0.00000000 </v>
     <v>       0.00000000       0.10000000       0.00000000 </v>
     <v>       0.00000000       0.00000000       0.10000000 </v>
    </varray>
   </crystal>
   <varray name="positions" >
    <v>       0.43337408       0.00000000      -0.00000000 </v>
    <v>       0.56662592      -0.00000000       0.00000000 </v>
   </varray>
  </structure>
  <varray name="forces" >
   <v>      14.62046271       0.00000000      -0.00000000 </v>
   <v>     -14.62046271      -0.00000000       0.00000000 </v>
  </varray>
  <varray name="stress" >
   <v>     -32.32176190       0.00000000       0.00000000 </v>
   <v>      -0.00000000      -1.38873770       0.00000000 </v>
   <v>       0.00000000       0.00000000      -1.38873770 </v>
  </varray>
  <energy>
   <i name="e_fr_energy">    -14.54109250 </i>
   <i name="e_wo_entrp">    -14.54109250 </i>
   <i name="e_0_energy">    -14.54109250 </i>
  </energy>
  <time name="totalsc">    1.75    1.78</time>
 </calculation>
 <calculation>
  <scstep>
   <time name="dav">    0.03    0.03</time>
   <time name="total">    0.10    0.10</time>
   <energy>
    <i name="alphaZ">      0.43098392 </i>
    <i name="ewald">    118.35974582 </i>
    <i name="hartreedc">   -540.67791070 </i>
    <i name="XCdc">     38.46323110 </i>
    <i name="pawpsdc">    663.65915815 </i>
    <i name="pawaedc">   -666.04391369 </i>
    <i name="eentropy">     -0.00000000 </i>
    <i name="bandstr">   -159.95934532 </i>
    <i name="atom">    528.95000483 </i>
    <i name="e_fr_energy">    -16.81804591 </i>
    <i name="e_wo_entrp">    -16.81804591 </i>
    <i name="e_0_energy">    -16.81804591 </i>
   </energy>
  </scstep>
  <scstep>
   <time name="dav">    0.03    0.03</time>
   <time name="total">    0.10    0.10</time>
   <energy>
    <i name="e_fr_energy">    -16.66475624 </i>
    <i name="e_wo_entrp">    -16.66475624 </i>
    <i name="e_0_energy">    -16.66475624 </i>
   </energy>
  </scstep>
  <scstep>
   <time name="dav">    0.03    0.03</time>
   <time name="total">    0.10    0.10</time>
   <energy>
    <i name="e_fr_energy">    -16.61533422 </i>
    <i name="e_wo_entrp">    -16.61533422 </i>
    <i name="e_0_energy">    -16.61533422 </i>
   </energy>
  </scstep>
  <scstep>
   <time name="dav">    0.03    0.03</time>
   <time name="total">    0.10    0.10</time>
   <energy>
    <i name="e_fr_energy">    -16.61624217 </i>
    <i name="e_wo_entrp">    -16.61624217 </i>
    <i name="e_0_energy">    -16.61624217 </i>
   </energy>
  </scstep>
  <scstep>
   <time name="dav">    0.03    0.03</time>
   <time name="total">    0.10    0.10</time>
   <energy>
    <i name="e_fr_energy">    -16.61690379 </i>
    <i name="e_wo_entrp">    -16.61690379 </i>
    <i name="e_0_energy">    -16.61690379 </i>
   </energy>
  </scstep>
  <scstep>
   <time name="dav">    0.03    0.03</time>
   <time name="total">    0.10    0.10</time>
   <energy>
    <i name="e_fr_energy">    -16.61713398 </i>
    <i name="e_wo_entrp">    -16.61713398 </i>
    <i name="e_0_energy">    -16.61713398 </i>
   </energy>
  </scstep>
  <scstep>
   <time name="dav">    0.03    0.03</time>
   <time name="total">    0.10    0.10</time>
   <energy>
    <i name="e_fr_energy">    -16.61753977 </i>
    <i name="e_wo_entrp">    -16.61753977 </i>
    <i name="e_0_energy">    -16.61753977 </i>
   </energy>
  </scstep>
  <scstep>
   <time name="dav">    0.03    0.03</time>
   <time name="total">    0.10    0.10</time>
   <energy>
    <i name="e_fr_energy">    -16.61778517 </i>
    <i name="e_wo_entrp">    -16.61778517 </i>
    <i name="e_0_energy">    -16.61778517 </i>
   </energy>
  </scstep>
  <scstep>
   <time name="dav">    0.03    0.03</time>
   <time name="total">    0.10    0.10</time>
   <energy>
    <i name="e_fr_energy">    -16.61795430 </i>
    <i name="e_wo_entrp">    -16.61795430 </i>
    <i name="e_0_energy">    -16.61795430 </i>
   </energy>
  </scstep>
  <scstep>
   <time name="dav">    0.03    0.03</time>
   <time name="total">    0.10    0.10</time>
   <energy>
    <i name="e_fr_energy">    -16.61801802 </i>
    <i name="e_wo_entrp">    -16.61801802 </i>
    <i name="e_0_energy">    -16.61801802 </i>
   </energy>
  </scstep>
  <scstep>
   <time name="dav">    0.03    0.03</time>
   <time name="total">    0.10    0.10</time>
   <energy>
    <i name="e_fr_energy">    -16.61803477 </i>
    <i name="e_wo_entrp">    -16.61803477 </i>
    <i name="e_0_energy">    -16.61803477 </i>
   </energy>
  </scstep>
  <scstep>
   <time name="dav">    0.03    0.03</time>
   <time name="total">    0.10    0.10</time>
   <energy>
    <i name="e_fr_energy">    -16.61804467 </i>
    <i name="e_wo_entrp">    -16.61804467 </i>
    <i name="e_0_energy">    -16.61804467 </i>
   </energy>
  </scstep>
  <scstep>
   <time name="dav">    0.03    0.03</time>
   <time name="total">    0.10    0.10</time>
   <energy>
    <i name="e_fr_energy">    -16.61804803 </i>
    <i name="e_wo_entrp">    -16.61804803 </i>
    <i name="e_0_energy">    -16.61804803 </i>
   </energy>
  </scstep>
  <scstep>
   <time name="dav">    0.03    0.03</time>
   <time name="total">    0.11    0.11</time>
   <energy>
    <i name="e_fr_energy">    -16.61804853 </i>
    <i name="e_wo_entrp">    -16.61804853 </i>
    <i name="e_0_energy">    -16.61804853 </i>
   </energy>
  </scstep>
  <scstep>
   <time name="dav">    0.03    0.03</time>
   <time name="total">    0.10    0.10</time>
   <energy>
    <i name="e_fr_energy">    -16.61804881 </i>
    <i name="e_wo_entrp">    -16.61804881 </i>
    <i name="e_0_energy">    -16.61804881 </i>
   </energy>
  </scstep>
  <scstep>
   <time name="dav">    0.03    0.03</time>
   <time name="total">    0.09    0.09</time>
   <energy>
    <i name="alphaZ">      0.43098392 </i>
    <i name="ewald">    118.35974582 </i>
    <i name="hartreedc">   -552.41970949 </i>
    <i name="XCdc">     39.14656697 </i>
    <i name="pawpsdc">    951.58891885 </i>
    <i name="pawaedc">   -954.26941039 </i>
    <i name="eentropy">     -0.00000000 </i>
    <i name="bandstr">   -148.40514934 </i>
    <i name="atom">    528.95000483 </i>
    <i name="e_fr_energy">    -16.61804883 </i>
    <i name="e_wo_entrp">    -16.61804883 </i>
    <i name="e_0_energy">    -16.61804883 </i>
   </energy>
  </scstep>
  <structure>
   <crystal>
    <varray name="basis" >
     <v>      10.00000000       0.00000000       0.00000000 </v>
     <v>       0.00000000      10.00000000       0.00000000 </v>
     <v>       0.00000000       0.00000000      10.00000000 </v>
    </varray>
    <i name="volume">   1000.00000000 </i>
    <varray name="rec_basis" >
     <v>       0.10000000       0.00000000       0.00000000 </v>
     <v>       0.00000000       0.10000000       0.00000000 </v>
     <v>       0.00000000       0.00000000       0.10000000 </v>
    </varray>
   </crystal>
   <varray name="positions" >
    <v>       0.44404465       0.00000000      -0.00000000 </v>
    <v>       0.55595535      -0.00000000       0.00000000 </v>
   </varray>
  </structure>
  <varray name="forces" >
   <v>       0.27822011       0.00000000      -0.00000000 </v>
   <v>      -0.27822011      -0.00000000       0.00000000 </v>
  </varray>
  <varray name="stress" >
   <v>      -2.52388593       0.00000000       0.00000000 </v>
   <v>       0.00000000      -1.66832676      -0.00000000 </v>
   <v>       0.00000000       0.00000000      -1.66832676 </v>
  </varray>
  <energy>
   <i name="e_fr_energy">    -16.61804883 </i>
   <i name="e_wo_entrp">    -16.61804883 </i>
   <i name="e_0_energy">    -16.61804883 </i>
  </energy>
  <time name="totalsc">    1.78    1.81</time>
 </calculation>
 <calculation>
  <scstep>
   <time name="dav">    0.03    0.03</time>
   <time name="total">    0.10    0.10</time>
   <energy>
    <i name="alphaZ">      0.43098392 </i>
    <i name="ewald">    118.86073404 </i>
    <i name="hartreedc">   -552.72015291 </i>
    <i name="XCdc">     39.15561116 </i>
    <i name="pawpsdc">    951.58861093 </i>
    <i name="pawaedc">   -954.26910231 </i>
    <i name="eentropy">     -0.00000000 </i>
    <i name="bandstr">   -148.61502406 </i>
    <i name="atom">    528.95000483 </i>
    <i name="e_fr_energy">    -16.61833441 </i>
    <i name="e_wo_entrp">    -16.61833441 </i>
    <i name="e_0_energy">    -16.61833441 </i>
   </energy>
  </scstep>
  <scstep>
   <time name="dav">    0.03    0.03</time>
   <time name="total">    0.10    0.10</time>
   <energy>
    <i name="e_fr_energy">    -16.61831016 </i>
    <i name="e_wo_entrp">    -16.61831016 </i>
    <i name="e_0_energy">    -16.61831016 </i>
   </energy>
  </scstep>
  <scstep>
   <time name="dav">    0.03    0.03</time>
   <time name="total">    0.10    0.10</time>
   <energy>
    <i name="e_fr_energy">    -16.61830538 </i>
    <i name="e_wo_entrp">    -16.61830538 </i>
    <i name="e_0_energy">    -16.61830538 </i>
   </energy>
  </scstep>
  <scstep>
   <time name="dav">    0.03    0.03</time>
   <time name="total">    0.09    0.09</time>
   <energy>
    <i name="alphaZ">      0.43098392 </i>
    <i name="ewald">    118.86073404 </i>
    <i name="hartreedc">   -552.84650514 </i>
    <i name="XCdc">     39.16275177 </i>
    <i name="pawpsdc">    954.12113466 </i>
    <i name="pawaedc">   -956.80533180 </i>
    <i name="eentropy">     -0.00000000 </i>
    <i name="bandstr">   -148.49207775 </i>
    <i name="atom">    528.95000483 </i>
    <i name="e_fr_energy">    -16.61830547 </i>
    <i name="e_wo_entrp">    -16.61830547 </i>
    <i name="e_0_energy">    -16.61830547 </i>
   </energy>
  </scstep>
  <structure>
   <crystal>
    <varray name="basis" >
     <v>      10.00000000       0.00000000       0.00000000 </v>
     <v>       0.00000000      10.00000000       0.00000000 </v>
     <v>       0.00000000       0.00000000      10.00000000 </v>
    </varray>
    <i name="volume">   1000.00000000 </i>
    <varray name="rec_basis" >
     <v>       0.10000000       0.00000000       0.00000000 </v>
     <v>       0.00000000       0.10000000       0.00000000 </v>
     <v>       0.00000000       0.00000000       0.10000000 </v>
    </varray>
   </crystal>
   <varray name="positions" >
    <v>       0.44413219       0.00000000      -0.00000000 </v>
    <v>       0.55586781      -0.00000000       0.00000000 </v>
   </varray>
  </structure>
  <varray name="forces" >
   <v>       0.01489633       0.00000000      -0.00000000 </v>
   <v>      -0.01489633      -0.00000000       0.00000000 </v>
  </varray>
  <varray name="stress" >
   <v>      -2.06948270      -0.00000000       0.00000000 </v>
   <v>       0.00000000      -1.67594211       0.00000000 </v>
   <v>       0.00000000      -0.00000000      -1.67594211 </v>
  </varray>
  <energy>
   <i name="e_fr_energy">    -16.61830547 </i>
   <i name="e_wo_entrp">    -16.61830547 </i>
   <i name="e_0_energy">    -16.61830547 </i>
  </energy>
  <time name="totalsc">    0.56    0.58</time>
 </calculation>
 <calculation>
  <scstep>
   <time name="dav">    0.03    0.03</time>
   <time name="total">    0.10    0.10</time>
   <energy>
    <i name="alphaZ">      0.43098392 </i>
    <i name="ewald">    118.88894632 </i>
    <i name="hartreedc">   -552.85999865 </i>
    <i name="XCdc">     39.16303634 </i>
    <i name="pawpsdc">    954.41134693 </i>
    <i name="pawaedc">   -957.09578181 </i>
    <i name="eentropy">     -0.00000000 </i>
    <i name="bandstr">   -148.50684430 </i>
    <i name="atom">    528.95000483 </i>
    <i name="e_fr_energy">    -16.61830642 </i>
    <i name="e_wo_entrp">    -16.61830642 </i>
    <i name="e_0_energy">    -16.61830642 </i>
   </energy>
  </scstep>
  <scstep>
   <time name="dav">    0.03    0.03</time>
   <time name="total">    0.09    0.09</time>
   <energy>
    <i name="alphaZ">      0.43098392 </i>
    <i name="ewald">    118.88894632 </i>
    <i name="hartreedc">   -552.86443281 </i>
    <i name="XCdc">     39.16328901 </i>
    <i name="pawpsdc">    954.47390807 </i>
    <i name="pawaedc">   -957.15843956 </i>
    <i name="eentropy">     -0.00000000 </i>
    <i name="bandstr">   -148.50256618 </i>
    <i name="atom">    528.95000483 </i>
    <i name="e_fr_energy">    -16.61830641 </i>
    <i name="e_wo_entrp">    -16.61830641 </i>
    <i name="e_0_energy">    -16.61830641 </i>
   </energy>
  </scstep>
  <structure>
   <crystal>
    <varray name="basis" >
     <v>      10.00000000       0.00000000       0.00000000 </v>
     <v>       0.00000000      10.00000000       0.00000000 </v>
     <v>       0.00000000       0.00000000      10.00000000 </v>
    </varray>
    <i name="volume">   1000.00000000 </i>
    <varray name="rec_basis" >
     <v>       0.10000000       0.00000000       0.00000000 </v>
     <v>       0.00000000       0.10000000       0.00000000 </v>
     <v>       0.00000000       0.00000000       0.10000000 </v>
    </varray>
   </crystal>
   <varray name="positions" >
    <v>       0.44413711       0.00000000      -0.00000000 </v>
    <v>       0.55586289      -0.00000000       0.00000000 </v>
   </varray>
  </structure>
  <varray name="forces" >
   <v>       0.00163931       0.00000000      -0.00000000 </v>
   <v>      -0.00163931      -0.00000000       0.00000000 </v>
  </varray>
  <varray name="stress" >
   <v>      -2.04023676      -0.00000000       0.00000000 </v>
   <v>       0.00000000      -1.66833293       0.00000000 </v>
   <v>      -0.00000000      -0.00000000      -1.66833293 </v>
  </varray>
  <energy>
   <i name="e_fr_energy">    -16.61830641 </i>
   <i name="e_wo_entrp">    -16.61830641 </i>
   <i name="e_0_energy">    -16.61830641 </i>
  </energy>
  <time name="totalsc">    0.35    0.36</time>
  <eigenvalues>
   <array>
    <dimension dim="1">band</dimension>
    <dimension dim="2">kpoint</dimension>
    <dimension dim="3">spin</dimension>
    <field>eigene</field>
    <field>occ</field>
    <set>
     <set comment="spin 1">
      <set comment="kpoint 1">
       <r>  -28.0105    1.0000 </r>
       <r>  -13.4523    1.0000 </r>
       <r>  -11.3722    1.0000 </r>
       <r>  -11.3722    1.0000 </r>
       <r>  -10.0441    1.0000 </r>
       <r>   -2.0271    0.0000 </r>
       <r>   -2.0271    0.0000 </r>
       <r>   -0.2214    0.0000 </r>
       <r>    1.1251    0.0000 </r>
       <r>    1.1251    0.0000 </r>
       <r>    1.1721    0.0000 </r>
       <r>    1.2423    0.0000 </r>
       <r>    1.3368    0.0000 </r>
       <r>    1.3881    0.0000 </r>
       <r>    2.5750    0.0000 </r>
       <r>    2.5750    0.0000 </r>
       <r>    2.5775    0.0000 </r>
       <r>    2.6207    0.0000 </r>
       <r>    2.7506    0.0000 </r>
       <r>    2.7757    0.0000 </r>
       <r>    2.7757    0.0000 </r>
       <r>    2.8341    0.0000 </r>
       <r>    2.9096    0.0000 </r>
       <r>    2.9146    0.0000 </r>
       <r>    2.9146    0.0000 </r>
       <r>    3.0970    0.0000 </r>
       <r>    4.1579    0.0000 </r>
       <r>    4.2888    0.0000 </r>
       <r>    4.2888    0.0000 </r>
       <r>    4.3041    0.0000 </r>
       <r>    4.3041    0.0000 </r>
       <r>    4.3126    0.0000 </r>
      </set>
     </set>
    </set>
   </array>
  </eigenvalues>
  <separator name="orbital magnetization" >
   <v name="MAGDIPOLOUT">      0.00000000      0.00000000      0.00000000</v>
  </separator>
  <dos>
   <i name="efermi">     -9.47489731 </i>
   <total>
    <array>
     <dimension dim="1">gridpoints</dimension>
     <dimension dim="2">spin</dimension>
     <field>energy</field>
     <field>total</field>
     <field>integrated</field>
     <set>
      <set comment="spin 1">
       <r>   -29.6267     0.0000     0.0000 </r>
       <r>   -29.5082     0.0000     0.0000 </r>
       <r>   -29.3897     0.0000     0.0000 </r>
       <r>   -29.2711     0.0000     0.0000 </r>
       <r>   -29.1526     0.0000     0.0000 </r>
       <r>   -29.0341     0.0000     0.0000 </r>
       <r>   -28.9156     0.0000     0.0000 </r>
       <r>   -28.7971     0.0000     0.0000 </r>
       <r>   -28.6786     0.0000     0.0000 </r>
       <r>   -28.5600     0.0000     0.0000 </r>
       <r>   -28.4415     0.0000     0.0000 </r>
       <r>   -28.3230     0.0001     0.0000 </r>
       <r>   -28.2045     0.0513     0.0061 </r>
       <r>   -28.0860     2.3630     0.2861 </r>
       <r>   -27.9674     9.8858     1.4578 </r>
       <r>   -27.8489     4.3868     1.9777 </r>
       <r>   -27.7304     0.1873     1.9999 </r>
       <r>   -27.6119     0.0006     2.0000 </r>
       <r>   -27.4934     0.0000     2.0000 </r>
       <r>   -27.3749     0.0000     2.0000 </r>
       <r>   -27.2563     0.0000     2.0000 </r>
       <r>   -27.1378     0.0000     2.0000 </r>
       <r>   -27.0193     0.0000     2.0000 </r>
       <r>   -26.9008     0.0000     2.0000 </r>
       <r>   -26.7823     0.0000     2.0000 </r>
       <r>   -26.6637     0.0000     2.0000 </r>
       <r>   -26.5452     0.0000     2.0000 </r>
       <r>   -26.4267     0.0000     2.0000 </r>
       <r>   -26.3082     0.0000     2.0000 </r>
       <r>   -26.1897     0.0000     2.0000 </r>
       <r>   -26.0712     0.0000     2.0000 </r>
       <r>   -25.9526     0.0000     2.0000 </r>
       <r>   -25.8341     0.0000     2.0000 </r>
       <r>   -25.7156     0.0000     2.0000 </r>
       <r>   -25.5971     0.0000     2.0000 </r>
       <r>   -25.4786     0.0000     2.0000 </r>
       <r>   -25.3600     0.0000     2.0000 </r>
       <r>   -25.2415     0.0000     2.0000 </r>
       <r>   -25.1230     0.0000     2.0000 </r>
       <r>   -25.0045     0.0000     2.0000 </r>
       <r>   -24.8860     0.0000     2.0000 </r>
       <r>   -24.7675     0.0000     2.0000 </r>
       <r>   -24.6489     0.0000     2.0000 </r>
       <r>   -24.5304     0.0000     2.0000 </r>
       <r>   -24.4119     0.0000     2.0000 </r>
       <r>   -24.2934     0.0000     2.0000 </r>
       <r>   -24.1749     0.0000     2.0000 </r>
       <r>   -24.0563     0.0000     2.0000 </r>
       <r>   -23.9378     0.0000     2.0000 </r>
       <r>   -23.8193     0.0000     2.0000 </r>
       <r>   -23.7008     0.0000     2.0000 </r>
       <r>   -23.5823     0.0000     2.0000 </r>
       <r>   -23.4638     0.0000     2.0000 </r>
       <r>   -23.3452     0.0000     2.0000 </r>
       <r>   -23.2267     0.0000     2.0000 </r>
       <r>   -23.1082     0.0000     2.0000 </r>
       <r>   -22.9897     0.0000     2.0000 </r>
       <r>   -22.8712     0.0000     2.0000 </r>
       <r>   -22.7526     0.0000     2.0000 </r>
       <r>   -22.6341     0.0000     2.0000 </r>
       <r>   -22.5156     0.0000     2.0000 </r>
       <r>   -22.3971     0.0000     2.0000 </r>
       <r>   -22.2786     0.0000     2.0000 </r>
       <r>   -22.1601     0.0000     2.0000 </r>
       <r>   -22.0415     0.0000     2.0000 </r>
       <r>   -21.9230     0.0000     2.0000 </r>
       <r>   -21.8045     0.0000     2.0000 </r>
       <r>   -21.6860     0.0000     2.0000 </r>
       <r>   -21.5675     0.0000     2.0000 </r>
       <r>   -21.4489     0.0000     2.0000 </r>
       <r>   -21.3304     0.0000     2.0000 </r>
       <r>   -21.2119     0.0000     2.0000 </r>
       <r>   -21.0934     0.0000     2.0000 </r>
       <r>   -20.9749     0.0000     2.0000 </r>
       <r>   -20.8564     0.0000     2.0000 </r>
       <r>   -20.7378     0.0000     2.0000 </r>
       <r>   -20.6193     0.0000     2.0000 </r>
       <r>   -20.5008     0.0000     2.0000 </r>
       <r>   -20.3823     0.0000     2.0000 </r>
       <r>   -20.2638     0.0000     2.0000 </r>
       <r>   -20.1452     0.0000     2.0000 </r>
       <r>   -20.0267     0.0000     2.0000 </r>
       <r>   -19.9082     0.0000     2.0000 </r>
       <r>   -19.7897     0.0000     2.0000 </r>
       <r>   -19.6712     0.0000     2.0000 </r>
       <r>   -19.5527     0.0000     2.0000 </r>
       <r>   -19.4341     0.0000     2.0000 </r>
       <r>   -19.3156     0.0000     2.0000 </r>
       <r>   -19.1971     0.0000     2.0000 </r>
       <r>   -19.0786     0.0000     2.0000 </r>
       <r>   -18.9601     0.0000     2.0000 </r>
       <r>   -18.8415     0.0000     2.0000 </r>
       <r>   -18.7230     0.0000     2.0000 </r>
       <r>   -18.6045     0.0000     2.0000 </r>
       <r>   -18.4860     0.0000     2.0000 </r>
       <r>   -18.3675     0.0000     2.0000 </r>
       <r>   -18.2490     0.0000     2.0000 </r>
       <r>   -18.1304     0.0000     2.0000 </r>
       <r>   -18.0119     0.0000     2.0000 </r>
       <r>   -17.8934     0.0000     2.0000 </r>
       <r>   -17.7749     0.0000     2.0000 </r>
       <r>   -17.6564     0.0000     2.0000 </r>
       <r>   -17.5378     0.0000     2.0000 </r>
       <r>   -17.4193     0.0000     2.0000 </r>
       <r>   -17.3008     0.0000     2.0000 </r>
       <r>   -17.1823     0.0000     2.0000 </r>
       <r>   -17.0638     0.0000     2.0000 </r>
       <r>   -16.9453     0.0000     2.0000 </r>
       <r>   -16.8267     0.0000     2.0000 </r>
       <r>   -16.7082     0.0000     2.0000 </r>
       <r>   -16.5897     0.0000     2.0000 </r>
       <r>   -16.4712     0.0000     2.0000 </r>
       <r>   -16.3527     0.0000     2.0000 </r>
       <r>   -16.2341     0.0000     2.0000 </r>
       <r>   -16.1156     0.0000     2.0000 </r>
       <r>   -15.9971     0.0000     2.0000 </r>
       <r>   -15.8786     0.0000     2.0000 </r>
       <r>   -15.7601     0.0000     2.0000 </r>
       <r>   -15.6415     0.0000     2.0000 </r>
       <r>   -15.5230     0.0000     2.0000 </r>
       <r>   -15.4045     0.0000     2.0000 </r>
       <r>   -15.2860     0.0000     2.0000 </r>
       <r>   -15.1675     0.0000     2.0000 </r>
       <r>   -15.0490     0.0000     2.0000 </r>
       <r>   -14.9304     0.0000     2.0000 </r>
       <r>   -14.8119     0.0000     2.0000 </r>
       <r>   -14.6934     0.0000     2.0000 </r>
       <r>   -14.5749     0.0000     2.0000 </r>
       <r>   -14.4564     0.0000     2.0000 </r>
       <r>   -14.3378     0.0000     2.0000 </r>
       <r>   -14.2193     0.0000     2.0000 </r>
       <r>   -14.1008     0.0000     2.0000 </r>
       <r>   -13.9823     0.0000     2.0000 </r>
       <r>   -13.8638     0.0000     2.0000 </r>
       <r>   -13.7453     0.0003     2.0000 </r>
       <r>   -13.6267     0.1146     2.0136 </r>
       <r>   -13.5082     3.5041     2.4289 </r>
       <r>   -13.3897    10.0825     3.6239 </r>
       <r>   -13.2712     3.0856     3.9896 </r>
       <r>   -13.1527     0.0878     4.0000 </r>
       <r>   -13.0341     0.0002     4.0000 </r>
       <r>   -12.9156     0.0000     4.0000 </r>
       <r>   -12.7971     0.0000     4.0000 </r>
       <r>   -12.6786     0.0000     4.0000 </r>
       <r>   -12.5601     0.0000     4.0000 </r>
       <r>   -12.4416     0.0000     4.0000 </r>
       <r>   -12.3230     0.0000     4.0000 </r>
       <r>   -12.2045     0.0000     4.0000 </r>
       <r>   -12.0860     0.0000     4.0000 </r>
       <r>   -11.9675     0.0000     4.0000 </r>
       <r>   -11.8490     0.0000     4.0000 </r>
       <r>   -11.7304     0.0000     4.0000 </r>
       <r>   -11.6119     0.0118     4.0014 </r>
       <r>   -11.4934     1.4466     4.1728 </r>
       <r>   -11.3749    14.8986     5.9386 </r>
       <r>   -11.2564    15.6803     7.7970 </r>
       <r>   -11.1379     1.6973     7.9982 </r>
       <r>   -11.0193     0.0155     8.0000 </r>
       <r>   -10.9008     0.0000     8.0000 </r>
       <r>   -10.7823     0.0000     8.0000 </r>
       <r>   -10.6638     0.0000     8.0000 </r>
       <r>   -10.5453     0.0000     8.0000 </r>
       <r>   -10.4267     0.0000     8.0000 </r>
       <r>   -10.3082     0.0016     8.0002 </r>
       <r>   -10.1897     0.3316     8.0395 </r>
       <r>   -10.0712     5.5876     8.7017 </r>
       <r>    -9.9527     9.3007     9.8040 </r>
       <r>    -9.8342     1.6284     9.9970 </r>
       <r>    -9.7156     0.0252    10.0000 </r>
       <r>    -9.5971     0.0000    10.0000 </r>
       <r>    -9.4786     0.0000    10.0000 </r>
       <r>    -9.3601     0.0000    10.0000 </r>
       <r>    -9.2416     0.0000    10.0000 </r>
       <r>    -9.1230     0.0000    10.0000 </r>
       <r>    -9.0045     0.0000    10.0000 </r>
       <r>    -8.8860     0.0000    10.0000 </r>
       <r>    -8.7675     0.0000    10.0000 </r>
       <r>    -8.6490     0.0000    10.0000 </r>
       <r>    -8.5305     0.0000    10.0000 </r>
       <r>    -8.4119     0.0000    10.0000 </r>
       <r>    -8.2934     0.0000    10.0000 </r>
       <r>    -8.1749     0.0000    10.0000 </r>
       <r>    -8.0564     0.0000    10.0000 </r>
       <r>    -7.9379     0.0000    10.0000 </r>
       <r>    -7.8193     0.0000    10.0000 </r>
       <r>    -7.7008     0.0000    10.0000 </r>
       <r>    -7.5823     0.0000    10.0000 </r>
       <r>    -7.4638     0.0000    10.0000 </r>
       <r>    -7.3453     0.0000    10.0000 </r>
       <r>    -7.2268     0.0000    10.0000 </r>
       <r>    -7.1082     0.0000    10.0000 </r>
       <r>    -6.9897     0.0000    10.0000 </r>
       <r>    -6.8712     0.0000    10.0000 </r>
       <r>    -6.7527     0.0000    10.0000 </r>
       <r>    -6.6342     0.0000    10.0000 </r>
       <r>    -6.5156     0.0000    10.0000 </r>
       <r>    -6.3971     0.0000    10.0000 </r>
       <r>    -6.2786     0.0000    10.0000 </r>
       <r>    -6.1601     0.0000    10.0000 </r>
       <r>    -6.0416     0.0000    10.0000 </r>
       <r>    -5.9231     0.0000    10.0000 </r>
       <r>    -5.8045     0.0000    10.0000 </r>
       <r>    -5.6860     0.0000    10.0000 </r>
       <r>    -5.5675     0.0000    10.0000 </r>
       <r>    -5.4490     0.0000    10.0000 </r>
       <r>    -5.3305     0.0000    10.0000 </r>
       <r>    -5.2119     0.0000    10.0000 </r>
       <r>    -5.0934     0.0000    10.0000 </r>
       <r>    -4.9749     0.0000    10.0000 </r>
       <r>    -4.8564     0.0000    10.0000 </r>
       <r>    -4.7379     0.0000    10.0000 </r>
       <r>    -4.6194     0.0000    10.0000 </r>
       <r>    -4.5008     0.0000    10.0000 </r>
       <r>    -4.3823     0.0000    10.0000 </r>
       <r>    -4.2638     0.0000    10.0000 </r>
       <r>    -4.1453     0.0000    10.0000 </r>
       <r>    -4.0268     0.0000    10.0000 </r>
       <r>    -3.9082     0.0000    10.0000 </r>
       <r>    -3.7897     0.0000    10.0000 </r>
       <r>    -3.6712     0.0000    10.0000 </r>
       <r>    -3.5527     0.0000    10.0000 </r>
       <r>    -3.4342     0.0000    10.0000 </r>
       <r>    -3.3157     0.0000    10.0000 </r>
       <r>    -3.1971     0.0000    10.0000 </r>
       <r>    -3.0786     0.0000    10.0000 </r>
       <r>    -2.9601     0.0000    10.0000 </r>
       <r>    -2.8416     0.0000    10.0000 </r>
       <r>    -2.7231     0.0000    10.0000 </r>
       <r>    -2.6045     0.0000    10.0000 </r>
       <r>    -2.4860     0.0000    10.0000 </r>
       <r>    -2.3675     0.0000    10.0000 </r>
       <r>    -2.2490     0.0287    10.0034 </r>
       <r>    -2.1305     2.3974    10.2875 </r>
       <r>    -2.0120    17.3110    12.3392 </r>
       <r>    -1.8934    13.0221    13.8826 </r>
       <r>    -1.7749     0.9848    13.9993 </r>
       <r>    -1.6564     0.0061    14.0000 </r>
       <r>    -1.5379     0.0000    14.0000 </r>
       <r>    -1.4194     0.0000    14.0000 </r>
       <r>    -1.3008     0.0000    14.0000 </r>
       <r>    -1.1823     0.0000    14.0000 </r>
       <r>    -1.0638     0.0000    14.0000 </r>
       <r>    -0.9453     0.0000    14.0000 </r>
       <r>    -0.8268     0.0000    14.0000 </r>
       <r>    -0.7083     0.0000    14.0000 </r>
       <r>    -0.5897     0.0000    14.0000 </r>
       <r>    -0.4712     0.0035    14.0004 </r>
       <r>    -0.3527     0.5317    14.0634 </r>
       <r>    -0.2342     6.6964    14.8571 </r>
       <r>    -0.1157     8.5073    15.8653 </r>
       <r>     0.0029     1.1234    15.9985 </r>
       <r>     0.1214     0.0128    16.0000 </r>
       <r>     0.2399     0.0000    16.0000 </r>
       <r>     0.3584     0.0000    16.0000 </r>
       <r>     0.4769     0.0000    16.0000 </r>
       <r>     0.5954     0.0000    16.0000 </r>
       <r>     0.7140     0.0000    16.0000 </r>
       <r>     0.8325     0.0006    16.0001 </r>
       <r>     0.9510     0.2480    16.0295 </r>
       <r>     1.0695     8.4060    17.0257 </r>
       <r>     1.1880    32.8116    20.9145 </r>
       <r>     1.3066    30.0542    24.4765 </r>
       <r>     1.4251    22.7847    27.1769 </r>
       <r>     1.5436     6.6804    27.9686 </r>
       <r>     1.6621     0.2637    27.9999 </r>
       <r>     1.7806     0.0009    28.0000 </r>
       <r>     1.8992     0.0000    28.0000 </r>
       <r>     2.0177     0.0000    28.0000 </r>
       <r>     2.1362     0.0000    28.0000 </r>
       <r>     2.2547     0.0001    28.0000 </r>
       <r>     2.3732     0.1093    28.0130 </r>
       <r>     2.4917     6.4017    28.7717 </r>
       <r>     2.6103    36.4405    33.0906 </r>
       <r>     2.7288    39.0385    37.7173 </r>
       <r>     2.8473    48.0517    43.4123 </r>
       <r>     2.9658    43.9332    48.6192 </r>
       <r>     3.0843    18.4916    50.8108 </r>
       <r>     3.2029     8.8978    51.8654 </r>
       <r>     3.3214     1.1232    51.9985 </r>
       <r>     3.4399     0.0127    52.0000 </r>
       <r>     3.5584     0.0000    52.0000 </r>
       <r>     3.6769     0.0000    52.0000 </r>
       <r>     3.7954     0.0000    52.0000 </r>
       <r>     3.9140     0.0047    52.0006 </r>
       <r>     4.0325     0.6447    52.0770 </r>
       <r>     4.1510     8.6979    53.1078 </r>
       <r>     4.2695    34.9347    57.2482 </r>
       <r>     4.3880    47.8699    62.9217 </r>
       <r>     4.5066     8.9412    63.9814 </r>
       <r>     4.6251     0.1569    64.0000 </r>
       <r>     4.7436     0.0002    64.0000 </r>
       <r>     4.8621     0.0000    64.0000 </r>
       <r>     4.9806     0.0000    64.0000 </r>
       <r>     5.0991     0.0000    64.0000 </r>
       <r>     5.2177     0.0000    64.0000 </r>
       <r>     5.3362     0.0000    64.0000 </r>
       <r>     5.4547     0.0000    64.0000 </r>
       <r>     5.5732     0.0000    64.0000 </r>
       <r>     5.6917     0.0000    64.0000 </r>
       <r>     5.8103     0.0000    64.0000 </r>
       <r>     5.9288     0.0000    64.0000 </r>
      </set>
     </set>
    </array>
   </total>
   <partial>
    <array>
     <dimension dim="1">gridpoints</dimension>
     <dimension dim="2">spin</dimension>
     <dimension dim="3">ion</dimension>
     <field>energy</field>
     <field>  s  </field>
     <field>  p  </field>
     <field>  d  </field>
     <set>
      <set comment="ion 1">
       <set comment="spin 1">
        <r>   -29.6267     0.0000     0.0000     0.0000 </r>
        <r>   -29.5082     0.0000     0.0000     0.0000 </r>
        <r>   -29.3897     0.0000     0.0000     0.0000 </r>
        <r>   -29.2711     0.0000     0.0000     0.0000 </r>
        <r>   -29.1526     0.0000     0.0000     0.0000 </r>
        <r>   -29.0341     0.0000     0.0000     0.0000 </r>
        <r>   -28.9156     0.0000     0.0000     0.0000 </r>
        <r>   -28.7971     0.0000     0.0000     0.0000 </r>
        <r>   -28.6786     0.0000     0.0000     0.0000 </r>
        <r>   -28.5600     0.0000     0.0000     0.0000 </r>
        <r>   -28.4415     0.0000     0.0000     0.0000 </r>
        <r>   -28.3230     0.0000     0.0000     0.0000 </r>
        <r>   -28.2045     0.0199     0.0075     0.0000 </r>
        <r>   -28.0860     0.9170     0.3470     0.0000 </r>
        <r>   -27.9674     3.8364     1.4519     0.0000 </r>
        <r>   -27.8489     1.7024     0.6443     0.0000 </r>
        <r>   -27.7304     0.0727     0.0275     0.0000 </r>
        <r>   -27.6119     0.0002     0.0001     0.0000 </r>
        <r>   -27.4934     0.0000     0.0000     0.0000 </r>
        <r>   -27.3749     0.0000     0.0000     0.0000 </r>
        <r>   -27.2563     0.0000     0.0000     0.0000 </r>
        <r>   -27.1378     0.0000     0.0000     0.0000 </r>
        <r>   -27.0193     0.0000     0.0000     0.0000 </r>
        <r>   -26.9008     0.0000     0.0000     0.0000 </r>
        <r>   -26.7823     0.0000     0.0000     0.0000 </r>
        <r>   -26.6637     0.0000     0.0000     0.0000 </r>
        <r>   -26.5452     0.0000     0.0000     0.0000 </r>
        <r>   -26.4267     0.0000     0.0000     0.0000 </r>
        <r>   -26.3082     0.0000     0.0000     0.0000 </r>
        <r>   -26.1897     0.0000     0.0000     0.0000 </r>
        <r>   -26.0712     0.0000     0.0000     0.0000 </r>
        <r>   -25.9526     0.0000     0.0000     0.0000 </r>
        <r>   -25.8341     0.0000     0.0000     0.0000 </r>
        <r>   -25.7156     0.0000     0.0000     0.0000 </r>
        <r>   -25.5971     0.0000     0.0000     0.0000 </r>
        <r>   -25.4786     0.0000     0.0000     0.0000 </r>
        <r>   -25.3600     0.0000     0.0000     0.0000 </r>
        <r>   -25.2415     0.0000     0.0000     0.0000 </r>
        <r>   -25.1230     0.0000     0.0000     0.0000 </r>
        <r>   -25.0045     0.0000     0.0000     0.0000 </r>
        <r>   -24.8860     0.0000     0.0000     0.0000 </r>
        <r>   -24.7675     0.0000     0.0000     0.0000 </r>
        <r>   -24.6489     0.0000     0.0000     0.0000 </r>
        <r>   -24.5304     0.0000     0.0000     0.0000 </r>
        <r>   -24.4119     0.0000     0.0000     0.0000 </r>
        <r>   -24.2934     0.0000     0.0000     0.0000 </r>
        <r>   -24.1749     0.0000     0.0000     0.0000 </r>
        <r>   -24.0563     0.0000     0.0000     0.0000 </r>
        <r>   -23.9378     0.0000     0.0000     0.0000 </r>
        <r>   -23.8193     0.0000     0.0000     0.0000 </r>
        <r>   -23.7008     0.0000     0.0000     0.0000 </r>
        <r>   -23.5823     0.0000     0.0000     0.0000 </r>
        <r>   -23.4638     0.0000     0.0000     0.0000 </r>
        <r>   -23.3452     0.0000     0.0000     0.0000 </r>
        <r>   -23.2267     0.0000     0.0000     0.0000 </r>
        <r>   -23.1082     0.0000     0.0000     0.0000 </r>
        <r>   -22.9897     0.0000     0.0000     0.0000 </r>
        <r>   -22.8712     0.0000     0.0000     0.0000 </r>
        <r>   -22.7526     0.0000     0.0000     0.0000 </r>
        <r>   -22.6341     0.0000     0.0000     0.0000 </r>
        <r>   -22.5156     0.0000     0.0000     0.0000 </r>
        <r>   -22.3971     0.0000     0.0000     0.0000 </r>
        <r>   -22.2786     0.0000     0.0000     0.0000 </r>
        <r>   -22.1601     0.0000     0.0000     0.0000 </r>
        <r>   -22.0415     0.0000     0.0000     0.0000 </r>
        <r>   -21.9230     0.0000     0.0000     0.0000 </r>
        <r>   -21.8045     0.0000     0.0000     0.0000 </r>
        <r>   -21.6860     0.0000     0.0000     0.0000 </r>
        <r>   -21.5675     0.0000     0.0000     0.0000 </r>
        <r>   -21.4489     0.0000     0.0000     0.0000 </r>
        <r>   -21.3304     0.0000     0.0000     0.0000 </r>
        <r>   -21.2119     0.0000     0.0000     0.0000 </r>
        <r>   -21.0934     0.0000     0.0000     0.0000 </r>
        <r>   -20.9749     0.0000     0.0000     0.0000 </r>
        <r>   -20.8564     0.0000     0.0000     0.0000 </r>
        <r>   -20.7378     0.0000     0.0000     0.0000 </r>
        <r>   -20.6193     0.0000     0.0000     0.0000 </r>
        <r>   -20.5008     0.0000     0.0000     0.0000 </r>
        <r>   -20.3823     0.0000     0.0000     0.0000 </r>
        <r>   -20.2638     0.0000     0.0000     0.0000 </r>
        <r>   -20.1452     0.0000     0.0000     0.0000 </r>
        <r>   -20.0267     0.0000     0.0000     0.0000 </r>
        <r>   -19.9082     0.0000     0.0000     0.0000 </r>
        <r>   -19.7897     0.0000     0.0000     0.0000 </r>
        <r>   -19.6712     0.0000     0.0000     0.0000 </r>
        <r>   -19.5527     0.0000     0.0000     0.0000 </r>
        <r>   -19.4341     0.0000     0.0000     0.0000 </r>
        <r>   -19.3156     0.0000     0.0000     0.0000 </r>
        <r>   -19.1971     0.0000     0.0000     0.0000 </r>
        <r>   -19.0786     0.0000     0.0000     0.0000 </r>
        <r>   -18.9601     0.0000     0.0000     0.0000 </r>
        <r>   -18.8415     0.0000     0.0000     0.0000 </r>
        <r>   -18.7230     0.0000     0.0000     0.0000 </r>
        <r>   -18.6045     0.0000     0.0000     0.0000 </r>
        <r>   -18.4860     0.0000     0.0000     0.0000 </r>
        <r>   -18.3675     0.0000     0.0000     0.0000 </r>
        <r>   -18.2490     0.0000     0.0000     0.0000 </r>
        <r>   -18.1304     0.0000     0.0000     0.0000 </r>
        <r>   -18.0119     0.0000     0.0000     0.0000 </r>
        <r>   -17.8934     0.0000     0.0000     0.0000 </r>
        <r>   -17.7749     0.0000     0.0000     0.0000 </r>
        <r>   -17.6564     0.0000     0.0000     0.0000 </r>
        <r>   -17.5378     0.0000     0.0000     0.0000 </r>
        <r>   -17.4193     0.0000     0.0000     0.0000 </r>
        <r>   -17.3008     0.0000     0.0000     0.0000 </r>
        <r>   -17.1823     0.0000     0.0000     0.0000 </r>
        <r>   -17.0638     0.0000     0.0000     0.0000 </r>
        <r>   -16.9453     0.0000     0.0000     0.0000 </r>
        <r>   -16.8267     0.0000     0.0000     0.0000 </r>
        <r>   -16.7082     0.0000     0.0000     0.0000 </r>
        <r>   -16.5897     0.0000     0.0000     0.0000 </r>
        <r>   -16.4712     0.0000     0.0000     0.0000 </r>
        <r>   -16.3527     0.0000     0.0000     0.0000 </r>
        <r>   -16.2341     0.0000     0.0000     0.0000 </r>
        <r>   -16.1156     0.0000     0.0000     0.0000 </r>
        <r>   -15.9971     0.0000     0.0000     0.0000 </r>
        <r>   -15.8786     0.0000     0.0000     0.0000 </r>
        <r>   -15.7601     0.0000     0.0000     0.0000 </r>
        <r>   -15.6415     0.0000     0.0000     0.0000 </r>
        <r>   -15.5230     0.0000     0.0000     0.0000 </r>
        <r>   -15.4045     0.0000     0.0000     0.0000 </r>
        <r>   -15.2860     0.0000     0.0000     0.0000 </r>
        <r>   -15.1675     0.0000     0.0000     0.0000 </r>
        <r>   -15.0490     0.0000     0.0000     0.0000 </r>
        <r>   -14.9304     0.0000     0.0000     0.0000 </r>
        <r>   -14.8119     0.0000     0.0000     0.0000 </r>
        <r>   -14.6934     0.0000     0.0000     0.0000 </r>
        <r>   -14.5749     0.0000     0.0000     0.0000 </r>
        <r>   -14.4564     0.0000     0.0000     0.0000 </r>
        <r>   -14.3378     0.0000     0.0000     0.0000 </r>
        <r>   -14.2193     0.0000     0.0000     0.0000 </r>
        <r>   -14.1008     0.0000     0.0000     0.0000 </r>
        <r>   -13.9823     0.0000     0.0000     0.0000 </r>
        <r>   -13.8638     0.0000     0.0000     0.0000 </r>
        <r>   -13.7453     0.0001     0.0000     0.0000 </r>
        <r>   -13.6267     0.0309     0.0091     0.0000 </r>
        <r>   -13.5082     0.9444     0.2792     0.0000 </r>
        <r>   -13.3897     2.7175     0.8034     0.0000 </r>
        <r>   -13.2712     0.8316     0.2459     0.0000 </r>
        <r>   -13.1527     0.0237     0.0070     0.0000 </r>
        <r>   -13.0341     0.0001     0.0000     0.0000 </r>
        <r>   -12.9156     0.0000     0.0000     0.0000 </r>
        <r>   -12.7971     0.0000     0.0000     0.0000 </r>
        <r>   -12.6786     0.0000     0.0000     0.0000 </r>
        <r>   -12.5601     0.0000     0.0000     0.0000 </r>
        <r>   -12.4416     0.0000     0.0000     0.0000 </r>
        <r>   -12.3230     0.0000     0.0000     0.0000 </r>
        <r>   -12.2045     0.0000     0.0000     0.0000 </r>
        <r>   -12.0860     0.0000     0.0000     0.0000 </r>
        <r>   -11.9675     0.0000     0.0000     0.0000 </r>
        <r>   -11.8490     0.0000     0.0000     0.0000 </r>
        <r>   -11.7304     0.0000     0.0000     0.0000 </r>
        <r>   -11.6119     0.0000     0.0039     0.0000 </r>
        <r>   -11.4934     0.0000     0.4793     0.0000 </r>
        <r>   -11.3749     0.0000     4.9365     0.0000 </r>
        <r>   -11.2564     0.0000     5.1955     0.0000 </r>
        <r>   -11.1379     0.0000     0.5624     0.0000 </r>
        <r>   -11.0193     0.0000     0.0051     0.0000 </r>
        <r>   -10.9008     0.0000     0.0000     0.0000 </r>
        <r>   -10.7823     0.0000     0.0000     0.0000 </r>
        <r>   -10.6638     0.0000     0.0000     0.0000 </r>
        <r>   -10.5453     0.0000     0.0000     0.0000 </r>
        <r>   -10.4267     0.0000     0.0000     0.0000 </r>
        <r>   -10.3082     0.0001     0.0005     0.0000 </r>
        <r>   -10.1897     0.0116     0.1048     0.0000 </r>
        <r>   -10.0712     0.1961     1.7654     0.0000 </r>
        <r>    -9.9527     0.3264     2.9386     0.0000 </r>
        <r>    -9.8342     0.0571     0.5145     0.0000 </r>
        <r>    -9.7156     0.0009     0.0080     0.0000 </r>
        <r>    -9.5971     0.0000     0.0000     0.0000 </r>
        <r>    -9.4786     0.0000     0.0000     0.0000 </r>
        <r>    -9.3601     0.0000     0.0000     0.0000 </r>
        <r>    -9.2416     0.0000     0.0000     0.0000 </r>
        <r>    -9.1230     0.0000     0.0000     0.0000 </r>
        <r>    -9.0045     0.0000     0.0000     0.0000 </r>
        <r>    -8.8860     0.0000     0.0000     0.0000 </r>
        <r>    -8.7675     0.0000     0.0000     0.0000 </r>
        <r>    -8.6490     0.0000     0.0000     0.0000 </r>
        <r>    -8.5305     0.0000     0.0000     0.0000 </r>
        <r>    -8.4119     0.0000     0.0000     0.0000 </r>
        <r>    -8.2934     0.0000     0.0000     0.0000 </r>
        <r>    -8.1749     0.0000     0.0000     0.0000 </r>
        <r>    -8.0564     0.0000     0.0000     0.0000 </r>
        <r>    -7.9379     0.0000     0.0000     0.0000 </r>
        <r>    -7.8193     0.0000     0.0000     0.0000 </r>
        <r>    -7.7008     0.0000     0.0000     0.0000 </r>
        <r>    -7.5823     0.0000     0.0000     0.0000 </r>
        <r>    -7.4638     0.0000     0.0000     0.0000 </r>
        <r>    -7.3453     0.0000     0.0000     0.0000 </r>
        <r>    -7.2268     0.0000     0.0000     0.0000 </r>
        <r>    -7.1082     0.0000     0.0000     0.0000 </r>
        <r>    -6.9897     0.0000     0.0000     0.0000 </r>
        <r>    -6.8712     0.0000     0.0000     0.0000 </r>
        <r>    -6.7527     0.0000     0.0000     0.0000 </r>
        <r>    -6.6342     0.0000     0.0000     0.0000 </r>
        <r>    -6.5156     0.0000     0.0000     0.0000 </r>
        <r>    -6.3971     0.0000     0.0000     0.0000 </r>
        <r>    -6.2786     0.0000     0.0000     0.0000 </r>
        <r>    -6.1601     0.0000     0.0000     0.0000 </r>
        <r>    -6.0416     0.0000     0.0000     0.0000 </r>
        <r>    -5.9231     0.0000     0.0000     0.0000 </r>
        <r>    -5.8045     0.0000     0.0000     0.0000 </r>
        <r>    -5.6860     0.0000     0.0000     0.0000 </r>
        <r>    -5.5675     0.0000     0.0000     0.0000 </r>
        <r>    -5.4490     0.0000     0.0000     0.0000 </r>
        <r>    -5.3305     0.0000     0.0000     0.0000 </r>
        <r>    -5.2119     0.0000     0.0000     0.0000 </r>
        <r>    -5.0934     0.0000     0.0000     0.0000 </r>
        <r>    -4.9749     0.0000     0.0000     0.0000 </r>
        <r>    -4.8564     0.0000     0.0000     0.0000 </r>
        <r>    -4.7379     0.0000     0.0000     0.0000 </r>
        <r>    -4.6194     0.0000     0.0000     0.0000 </r>
        <r>    -4.5008     0.0000     0.0000     0.0000 </r>
        <r>    -4.3823     0.0000     0.0000     0.0000 </r>
        <r>    -4.2638     0.0000     0.0000     0.0000 </r>
        <r>    -4.1453     0.0000     0.0000     0.0000 </r>
        <r>    -4.0268     0.0000     0.0000     0.0000 </r>
        <r>    -3.9082     0.0000     0.0000     0.0000 </r>
        <r>    -3.7897     0.0000     0.0000     0.0000 </r>
        <r>    -3.6712     0.0000     0.0000     0.0000 </r>
        <r>    -3.5527     0.0000     0.0000     0.0000 </r>
        <r>    -3.4342     0.0000     0.0000     0.0000 </r>
        <r>    -3.3157     0.0000     0.0000     0.0000 </r>
        <r>    -3.1971     0.0000     0.0000     0.0000 </r>
        <r>    -3.0786     0.0000     0.0000     0.0000 </r>
        <r>    -2.9601     0.0000     0.0000     0.0000 </r>
        <r>    -2.8416     0.0000     0.0000     0.0000 </r>
        <r>    -2.7231     0.0000     0.0000     0.0000 </r>
        <r>    -2.6045     0.0000     0.0000     0.0000 </r>
        <r>    -2.4860     0.0000     0.0000     0.0000 </r>
        <r>    -2.3675     0.0000     0.0000     0.0000 </r>
        <r>    -2.2490     0.0000     0.0082     0.0000 </r>
        <r>    -2.1305     0.0000     0.6860     0.0000 </r>
        <r>    -2.0120     0.0000     4.9536     0.0000 </r>
        <r>    -1.8934     0.0000     3.7263     0.0000 </r>
        <r>    -1.7749     0.0000     0.2818     0.0000 </r>
        <r>    -1.6564     0.0000     0.0017     0.0000 </r>
        <r>    -1.5379     0.0000     0.0000     0.0000 </r>
        <r>    -1.4194     0.0000     0.0000     0.0000 </r>
        <r>    -1.3008     0.0000     0.0000     0.0000 </r>
        <r>    -1.1823     0.0000     0.0000     0.0000 </r>
        <r>    -1.0638     0.0000     0.0000     0.0000 </r>
        <r>    -0.9453     0.0000     0.0000     0.0000 </r>
        <r>    -0.8268     0.0000     0.0000     0.0000 </r>
        <r>    -0.7083     0.0000     0.0000     0.0000 </r>
        <r>    -0.5897     0.0000     0.0000     0.0000 </r>
        <r>    -0.4712     0.0000     0.0000     0.0000 </r>
        <r>    -0.3527     0.0021     0.0020     0.0000 </r>
        <r>    -0.2342     0.0267     0.0248     0.0000 </r>
        <r>    -0.1157     0.0339     0.0315     0.0000 </r>
        <r>     0.0029     0.0045     0.0042     0.0000 </r>
        <r>     0.1214     0.0001     0.0000     0.0000 </r>
        <r>     0.2399     0.0000     0.0000     0.0000 </r>
        <r>     0.3584     0.0000     0.0000     0.0000 </r>
        <r>     0.4769     0.0000     0.0000     0.0000 </r>
        <r>     0.5954     0.0000     0.0000     0.0000 </r>
        <r>     0.7140     0.0000     0.0000     0.0000 </r>
        <r>     0.8325     0.0000     0.0000     0.0000 </r>
        <r>     0.9510     0.0001     0.0016     0.0000 </r>
        <r>     1.0695     0.0075     0.0482     0.0000 </r>
        <r>     1.1880     0.0646     0.1449     0.0000 </r>
        <r>     1.3066     0.0836     0.0644     0.0000 </r>
        <r>     1.4251     0.0417     0.0422     0.0000 </r>
        <r>     1.5436     0.0137     0.0187     0.0000 </r>
        <r>     1.6621     0.0006     0.0009     0.0000 </r>
        <r>     1.7806     0.0000     0.0000     0.0000 </r>
        <r>     1.8992     0.0000     0.0000     0.0000 </r>
        <r>     2.0177     0.0000     0.0000     0.0000 </r>
        <r>     2.1362     0.0000     0.0000     0.0000 </r>
        <r>     2.2547     0.0000     0.0000     0.0000 </r>
        <r>     2.3732     0.0000     0.0005     0.0000 </r>
        <r>     2.4917     0.0039     0.0274     0.0000 </r>
        <r>     2.6103     0.0467     0.1390     0.0000 </r>
        <r>     2.7288     0.0625     0.1709     0.0000 </r>
        <r>     2.8473     0.0164     0.2442     0.0000 </r>
        <r>     2.9658     0.0050     0.0639     0.0000 </r>
        <r>     3.0843     0.0438     0.0260     0.0000 </r>
        <r>     3.2029     0.0556     0.0310     0.0000 </r>
        <r>     3.3214     0.0073     0.0041     0.0000 </r>
        <r>     3.4399     0.0001     0.0000     0.0000 </r>
        <r>     3.5584     0.0000     0.0000     0.0000 </r>
        <r>     3.6769     0.0000     0.0000     0.0000 </r>
        <r>     3.7954     0.0000     0.0000     0.0000 </r>
        <r>     3.9140     0.0000     0.0000     0.0000 </r>
        <r>     4.0325     0.0000     0.0000     0.0000 </r>
        <r>     4.1510     0.0006     0.0084     0.0000 </r>
        <r>     4.2695     0.0135     0.1286     0.0000 </r>
        <r>     4.3880     0.0303     0.2000     0.0000 </r>
        <r>     4.5066     0.0072     0.0332     0.0000 </r>
        <r>     4.6251     0.0002     0.0005     0.0000 </r>
        <r>     4.7436     0.0000     0.0000     0.0000 </r>
        <r>     4.8621     0.0000     0.0000     0.0000 </r>
        <r>     4.9806     0.0000     0.0000     0.0000 </r>
        <r>     5.0991     0.0000     0.0000     0.0000 </r>
        <r>     5.2177     0.0000     0.0000     0.0000 </r>
        <r>     5.3362     0.0000     0.0000     0.0000 </r>
        <r>     5.4547     0.0000     0.0000     0.0000 </r>
        <r>     5.5732     0.0000     0.0000     0.0000 </r>
        <r>     5.6917     0.0000     0.0000     0.0000 </r>
        <r>     5.8103     0.0000     0.0000     0.0000 </r>
        <r>     5.9288     0.0000     0.0000     0.0000 </r>
       </set>
      </set>
      <set comment="ion 2">
       <set comment="spin 1">
        <r>   -29.6267     0.0000     0.0000     0.0000 </r>
        <r>   -29.5082     0.0000     0.0000     0.0000 </r>
        <r>   -29.3897     0.0000     0.0000     0.0000 </r>
        <r>   -29.2711     0.0000     0.0000     0.0000 </r>
        <r>   -29.1526     0.0000     0.0000     0.0000 </r>
        <r>   -29.0341     0.0000     0.0000     0.0000 </r>
[...]
        <r>   -19.4341     0.0000     0.0000     0.0000 </r>
        <r>   -19.3156     0.0000     0.0000     0.0000 </r>
        <r>   -19.1971     0.0000     0.0000     0.0000 </r>
        <r>   -19.0786     0.0000     0.0000     0.0000 </r>
        <r>   -18.9601     0.0000     0.0000     0.0000 </r>
        <r>   -18.8415     0.0000     0.0000     0.0000 </r>
        <r>   -18.7230     0.0000     0.0000     0.0000 </r>
        <r>   -18.6045     0.0000     0.0000     0.0000 </r>
        <r>   -18.4860     0.0000     0.0000     0.0000 </r>
        <r>   -18.3675     0.0000     0.0000     0.0000 </r>
        <r>   -18.2490     0.0000     0.0000     0.0000 </r>
        <r>   -18.1304     0.0000     0.0000     0.0000 </r>
        <r>   -18.0119     0.0000     0.0000     0.0000 </r>
        <r>   -17.8934     0.0000     0.0000     0.0000 </r>
        <r>   -17.7749     0.0000     0.0000     0.0000 </r>
        <r>   -17.6564     0.0000     0.0000     0.0000 </r>
        <r>   -17.5378     0.0000     0.0000     0.0000 </r>
        <r>   -17.4193     0.0000     0.0000     0.0000 </r>
        <r>   -17.3008     0.0000     0.0000     0.0000 </r>
        <r>   -17.1823     0.0000     0.0000     0.0000 </r>
        <r>   -17.0638     0.0000     0.0000     0.0000 </r>
        <r>   -16.9453     0.0000     0.0000     0.0000 </r>
        <r>   -16.8267     0.0000     0.0000     0.0000 </r>
        <r>   -16.7082     0.0000     0.0000     0.0000 </r>
        <r>   -16.5897     0.0000     0.0000     0.0000 </r>
        <r>   -16.4712     0.0000     0.0000     0.0000 </r>
        <r>   -16.3527     0.0000     0.0000     0.0000 </r>
        <r>   -16.2341     0.0000     0.0000     0.0000 </r>
        <r>   -16.1156     0.0000     0.0000     0.0000 </r>
        <r>   -15.9971     0.0000     0.0000     0.0000 </r>
        <r>   -15.8786     0.0000     0.0000     0.0000 </r>
        <r>   -15.7601     0.0000     0.0000     0.0000 </r>
        <r>   -15.6415     0.0000     0.0000     0.0000 </r>
        <r>   -15.5230     0.0000     0.0000     0.0000 </r>
        <r>   -15.4045     0.0000     0.0000     0.0000 </r>
        <r>   -15.2860     0.0000     0.0000     0.0000 </r>
        <r>   -15.1675     0.0000     0.0000     0.0000 </r>
        <r>   -15.0490     0.0000     0.0000     0.0000 </r>
        <r>   -14.9304     0.0000     0.0000     0.0000 </r>
        <r>   -14.8119     0.0000     0.0000     0.0000 </r>
        <r>   -14.6934     0.0000     0.0000     0.0000 </r>
        <r>   -14.5749     0.0000     0.0000     0.0000 </r>
        <r>   -14.4564     0.0000     0.0000     0.0000 </r>
        <r>   -14.3378     0.0000     0.0000     0.0000 </r>
        <r>   -14.2193     0.0000     0.0000     0.0000 </r>
        <r>   -14.1008     0.0000     0.0000     0.0000 </r>
        <r>   -13.9823     0.0000     0.0000     0.0000 </r>
        <r>   -13.8638     0.0000     0.0000     0.0000 </r>
        <r>   -13.7453     0.0001     0.0000     0.0000 </r>
        <r>   -13.6267     0.0309     0.0091     0.0000 </r>
        <r>   -13.5082     0.9444     0.2792     0.0000 </r>
        <r>   -13.3897     2.7175     0.8034     0.0000 </r>
        <r>   -13.2712     0.8316     0.2459     0.0000 </r>
        <r>   -13.1527     0.0237     0.0070     0.0000 </r>
        <r>   -13.0341     0.0001     0.0000     0.0000 </r>
        <r>   -12.9156     0.0000     0.0000     0.0000 </r>
        <r>   -12.7971     0.0000     0.0000     0.0000 </r>
        <r>   -12.6786     0.0000     0.0000     0.0000 </r>
        <r>   -12.5601     0.0000     0.0000     0.0000 </r>
        <r>   -12.4416     0.0000     0.0000     0.0000 </r>
        <r>   -12.3230     0.0000     0.0000     0.0000 </r>
        <r>   -12.2045     0.0000     0.0000     0.0000 </r>
        <r>   -12.0860     0.0000     0.0000     0.0000 </r>
        <r>   -11.9675     0.0000     0.0000     0.0000 </r>
        <r>   -11.8490     0.0000     0.0000     0.0000 </r>
        <r>   -11.7304     0.0000     0.0000     0.0000 </r>
        <r>   -11.6119     0.0000     0.0039     0.0000 </r>
        <r>   -11.4934     0.0000     0.4793     0.0000 </r>
        <r>   -11.3749     0.0000     4.9365     0.0000 </r>
        <r>   -11.2564     0.0000     5.1955     0.0000 </r>
        <r>   -11.1379     0.0000     0.5624     0.0000 </r>
        <r>   -11.0193     0.0000     0.0051     0.0000 </r>
        <r>   -10.9008     0.0000     0.0000     0.0000 </r>
        <r>   -10.7823     0.0000     0.0000     0.0000 </r>
        <r>   -10.6638     0.0000     0.0000     0.0000 </r>
        <r>   -10.5453     0.0000     0.0000     0.0000 </r>
        <r>   -10.4267     0.0000     0.0000     0.0000 </r>
        <r>   -10.3082     0.0001     0.0005     0.0000 </r>
        <r>   -10.1897     0.0116     0.1048     0.0000 </r>
        <r>   -10.0712     0.1961     1.7654     0.0000 </r>
        <r>    -9.9527     0.3264     2.9386     0.0000 </r>
        <r>    -9.8342     0.0571     0.5145     0.0000 </r>
        <r>    -9.7156     0.0009     0.0080     0.0000 </r>
        <r>    -9.5971     0.0000     0.0000     0.0000 </r>
        <r>    -9.4786     0.0000     0.0000     0.0000 </r>
        <r>    -9.3601     0.0000     0.0000     0.0000 </r>
        <r>    -9.2416     0.0000     0.0000     0.0000 </r>
        <r>    -9.1230     0.0000     0.0000     0.0000 </r>
        <r>    -9.0045     0.0000     0.0000     0.0000 </r>
        <r>    -8.8860     0.0000     0.0000     0.0000 </r>
        <r>    -8.7675     0.0000     0.0000     0.0000 </r>
        <r>    -8.6490     0.0000     0.0000     0.0000 </r>
        <r>    -8.5305     0.0000     0.0000     0.0000 </r>
        <r>    -8.4119     0.0000     0.0000     0.0000 </r>
        <r>    -8.2934     0.0000     0.0000     0.0000 </r>
        <r>    -8.1749     0.0000     0.0000     0.0000 </r>
        <r>    -8.0564     0.0000     0.0000     0.0000 </r>
        <r>    -7.9379     0.0000     0.0000     0.0000 </r>
        <r>    -7.8193     0.0000     0.0000     0.0000 </r>
        <r>    -7.7008     0.0000     0.0000     0.0000 </r>
        <r>    -7.5823     0.0000     0.0000     0.0000 </r>
        <r>    -7.4638     0.0000     0.0000     0.0000 </r>
        <r>    -7.3453     0.0000     0.0000     0.0000 </r>
        <r>    -7.2268     0.0000     0.0000     0.0000 </r>
        <r>    -7.1082     0.0000     0.0000     0.0000 </r>
        <r>    -6.9897     0.0000     0.0000     0.0000 </r>
        <r>    -6.8712     0.0000     0.0000     0.0000 </r>
        <r>    -6.7527     0.0000     0.0000     0.0000 </r>
        <r>    -6.6342     0.0000     0.0000     0.0000 </r>
        <r>    -6.5156     0.0000     0.0000     0.0000 </r>
        <r>    -6.3971     0.0000     0.0000     0.0000 </r>
        <r>    -6.2786     0.0000     0.0000     0.0000 </r>
        <r>    -6.1601     0.0000     0.0000     0.0000 </r>
        <r>    -6.0416     0.0000     0.0000     0.0000 </r>
        <r>    -5.9231     0.0000     0.0000     0.0000 </r>
        <r>    -5.8045     0.0000     0.0000     0.0000 </r>
        <r>    -5.6860     0.0000     0.0000     0.0000 </r>
        <r>    -5.5675     0.0000     0.0000     0.0000 </r>
        <r>    -5.4490     0.0000     0.0000     0.0000 </r>
        <r>    -5.3305     0.0000     0.0000     0.0000 </r>
        <r>    -5.2119     0.0000     0.0000     0.0000 </r>
        <r>    -5.0934     0.0000     0.0000     0.0000 </r>
        <r>    -4.9749     0.0000     0.0000     0.0000 </r>
        <r>    -4.8564     0.0000     0.0000     0.0000 </r>
        <r>    -4.7379     0.0000     0.0000     0.0000 </r>
        <r>    -4.6194     0.0000     0.0000     0.0000 </r>
        <r>    -4.5008     0.0000     0.0000     0.0000 </r>
        <r>    -4.3823     0.0000     0.0000     0.0000 </r>
        <r>    -4.2638     0.0000     0.0000     0.0000 </r>
        <r>    -4.1453     0.0000     0.0000     0.0000 </r>
        <r>    -4.0268     0.0000     0.0000     0.0000 </r>
        <r>    -3.9082     0.0000     0.0000     0.0000 </r>
        <r>    -3.7897     0.0000     0.0000     0.0000 </r>
        <r>    -3.6712     0.0000     0.0000     0.0000 </r>
        <r>    -3.5527     0.0000     0.0000     0.0000 </r>
        <r>    -3.4342     0.0000     0.0000     0.0000 </r>
        <r>    -3.3157     0.0000     0.0000     0.0000 </r>
        <r>    -3.1971     0.0000     0.0000     0.0000 </r>
        <r>    -3.0786     0.0000     0.0000     0.0000 </r>
        <r>    -2.9601     0.0000     0.0000     0.0000 </r>
        <r>    -2.8416     0.0000     0.0000     0.0000 </r>
        <r>    -2.7231     0.0000     0.0000     0.0000 </r>
        <r>    -2.6045     0.0000     0.0000     0.0000 </r>
        <r>    -2.4860     0.0000     0.0000     0.0000 </r>
        <r>    -2.3675     0.0000     0.0000     0.0000 </r>
        <r>    -2.2490     0.0000     0.0082     0.0000 </r>
        <r>    -2.1305     0.0000     0.6860     0.0000 </r>
        <r>    -2.0120     0.0000     4.9536     0.0000 </r>
        <r>    -1.8934     0.0000     3.7263     0.0000 </r>
        <r>    -1.7749     0.0000     0.2818     0.0000 </r>
        <r>    -1.6564     0.0000     0.0017     0.0000 </r>
        <r>    -1.5379     0.0000     0.0000     0.0000 </r>
        <r>    -1.4194     0.0000     0.0000     0.0000 </r>
        <r>    -1.3008     0.0000     0.0000     0.0000 </r>
        <r>    -1.1823     0.0000     0.0000     0.0000 </r>
        <r>    -1.0638     0.0000     0.0000     0.0000 </r>
        <r>    -0.9453     0.0000     0.0000     0.0000 </r>
        <r>    -0.8268     0.0000     0.0000     0.0000 </r>
        <r>    -0.7083     0.0000     0.0000     0.0000 </r>
        <r>    -0.5897     0.0000     0.0000     0.0000 </r>
        <r>    -0.4712     0.0000     0.0000     0.0000 </r>
        <r>    -0.3527     0.0021     0.0020     0.0000 </r>
        <r>    -0.2342     0.0267     0.0248     0.0000 </r>
        <r>    -0.1157     0.0339     0.0315     0.0000 </r>
        <r>     0.0029     0.0045     0.0042     0.0000 </r>
        <r>     0.1214     0.0001     0.0000     0.0000 </r>
        <r>     0.2399     0.0000     0.0000     0.0000 </r>
        <r>     0.3584     0.0000     0.0000     0.0000 </r>
        <r>     0.4769     0.0000     0.0000     0.0000 </r>
        <r>     0.5954     0.0000     0.0000     0.0000 </r>
        <r>     0.7140     0.0000     0.0000     0.0000 </r>
        <r>     0.8325     0.0000     0.0000     0.0000 </r>
        <r>     0.9510     0.0001     0.0016     0.0000 </r>
        <r>     1.0695     0.0075     0.0482     0.0000 </r>
        <r>     1.1880     0.0646     0.1449     0.0000 </r>
        <r>     1.3066     0.0836     0.0644     0.0000 </r>
        <r>     1.4251     0.0417     0.0422     0.0000 </r>
        <r>     1.5436     0.0137     0.0187     0.0000 </r>
        <r>     1.6621     0.0006     0.0009     0.0000 </r>
        <r>     1.7806     0.0000     0.0000     0.0000 </r>
        <r>     1.8992     0.0000     0.0000     0.0000 </r>
        <r>     2.0177     0.0000     0.0000     0.0000 </r>
        <r>     2.1362     0.0000     0.0000     0.0000 </r>
        <r>     2.2547     0.0000     0.0000     0.0000 </r>
        <r>     2.3732     0.0000     0.0005     0.0000 </r>
        <r>     2.4917     0.0039     0.0274     0.0000 </r>
        <r>     2.6103     0.0467     0.1390     0.0000 </r>
        <r>     2.7288     0.0625     0.1709     0.0000 </r>
        <r>     2.8473     0.0164     0.2442     0.0000 </r>
        <r>     2.9658     0.0050     0.0639     0.0000 </r>
        <r>     3.0843     0.0438     0.0260     0.0000 </r>
        <r>     3.2029     0.0556     0.0310     0.0000 </r>
        <r>     3.3214     0.0073     0.0041     0.0000 </r>
        <r>     3.4399     0.0001     0.0000     0.0000 </r>
        <r>     3.5584     0.0000     0.0000     0.0000 </r>
        <r>     3.6769     0.0000     0.0000     0.0000 </r>
        <r>     3.7954     0.0000     0.0000     0.0000 </r>
        <r>     3.9140     0.0000     0.0000     0.0000 </r>
        <r>     4.0325     0.0000     0.0000     0.0000 </r>
        <r>     4.1510     0.0006     0.0084     0.0000 </r>
        <r>     4.2695     0.0135     0.1286     0.0000 </r>
        <r>     4.3880     0.0303     0.2000     0.0000 </r>
        <r>     4.5066     0.0072     0.0332     0.0000 </r>
        <r>     4.6251     0.0002     0.0005     0.0000 </r>
        <r>     4.7436     0.0000     0.0000     0.0000 </r>
        <r>     4.8621     0.0000     0.0000     0.0000 </r>
        <r>     4.9806     0.0000     0.0000     0.0000 </r>
        <r>     5.0991     0.0000     0.0000     0.0000 </r>
        <r>     5.2177     0.0000     0.0000     0.0000 </r>
        <r>     5.3362     0.0000     0.0000     0.0000 </r>
        <r>     5.4547     0.0000     0.0000     0.0000 </r>
        <r>     5.5732     0.0000     0.0000     0.0000 </r>
        <r>     5.6917     0.0000     0.0000     0.0000 </r>
        <r>     5.8103     0.0000     0.0000     0.0000 </r>
        <r>     5.9288     0.0000     0.0000     0.0000 </r>
       </set>
      </set>
     </set>
    </array>
   </partial>
  </dos>
  <projected>
   <eigenvalues>
    <array>
     <dimension dim="1">band</dimension>
     <dimension dim="2">kpoint</dimension>
     <dimension dim="3">spin</dimension>
     <field>eigene</field>
     <field>occ</field>
     <set>
      <set comment="spin 1">
       <set comment="kpoint 1">
        <r>  -28.0105    1.0000 </r>
        <r>  -13.4523    1.0000 </r>
        <r>  -11.3722    1.0000 </r>
        <r>  -11.3722    1.0000 </r>
        <r>  -10.0441    1.0000 </r>
        <r>   -2.0271    0.0000 </r>
        <r>   -2.0271    0.0000 </r>
        <r>   -0.2214    0.0000 </r>
        <r>    1.1251    0.0000 </r>
        <r>    1.1251    0.0000 </r>
        <r>    1.1721    0.0000 </r>
        <r>    1.2423    0.0000 </r>
        <r>    1.3368    0.0000 </r>
        <r>    1.3881    0.0000 </r>
        <r>    2.5750    0.0000 </r>
        <r>    2.5750    0.0000 </r>
        <r>    2.5775    0.0000 </r>
        <r>    2.6207    0.0000 </r>
        <r>    2.7506    0.0000 </r>
        <r>    2.7757    0.0000 </r>
        <r>    2.7757    0.0000 </r>
        <r>    2.8341    0.0000 </r>
        <r>    2.9096    0.0000 </r>
        <r>    2.9146    0.0000 </r>
        <r>    2.9146    0.0000 </r>
        <r>    3.0970    0.0000 </r>
        <r>    4.1579    0.0000 </r>
        <r>    4.2888    0.0000 </r>
        <r>    4.2888    0.0000 </r>
        <r>    4.3041    0.0000 </r>
        <r>    4.3041    0.0000 </r>
        <r>    4.3126    0.0000 </r>
       </set>
      </set>
     </set>
    </array>
   </eigenvalues>
   <array>
    <dimension dim="1">ion</dimension>
    <dimension dim="2">band</dimension>
    <dimension dim="3">kpoint</dimension>
    <dimension dim="4">spin</dimension>
    <field>  s  </field>
    <field>  p  </field>
    <field>  d  </field>
    <set>
     <set comment="spin1">
      <set comment="kpoint 1">
       <set comment="band 1">
        <r>  0.3881  0.1469  0.0000 </r>
        <r>  0.3881  0.1469  0.0000 </r>
       </set>
       <set comment="band 2">
        <r>  0.2695  0.0797  0.0000 </r>
        <r>  0.2695  0.0797  0.0000 </r>
       </set>
       <set comment="band 3">
        <r>  0.0000  0.3313  0.0000 </r>
        <r>  0.0000  0.3313  0.0000 </r>
       </set>
       <set comment="band 4">
        <r>  0.0000  0.3313  0.0000 </r>
        <r>  0.0000  0.3313  0.0000 </r>
       </set>
       <set comment="band 5">
        <r>  0.0351  0.3160  0.0000 </r>
        <r>  0.0351  0.3160  0.0000 </r>
       </set>
       <set comment="band 6">
        <r>  0.0000  0.2862  0.0000 </r>
        <r>  0.0000  0.2862  0.0000 </r>
       </set>
       <set comment="band 7">
        <r>  0.0000  0.2862  0.0000 </r>
        <r>  0.0000  0.2862  0.0000 </r>
       </set>
       <set comment="band 8">
        <r>  0.0040  0.0037  0.0000 </r>
        <r>  0.0040  0.0037  0.0000 </r>
       </set>
       <set comment="band 9">
        <r>  0.0000  0.0067  0.0000 </r>
        <r>  0.0000  0.0067  0.0000 </r>
       </set>
       <set comment="band 10">
        <r>  0.0000  0.0067  0.0000 </r>
        <r>  0.0000  0.0067  0.0000 </r>
       </set>
       <set comment="band 11">
        <r>  0.0057  0.0006  0.0000 </r>
        <r>  0.0057  0.0006  0.0000 </r>
       </set>
       <set comment="band 12">
        <r>  0.0041  0.0011  0.0000 </r>
        <r>  0.0041  0.0011  0.0000 </r>
       </set>
       <set comment="band 13">
        <r>  0.0000  0.0000  0.0000 </r>
        <r>  0.0000  0.0000  0.0000 </r>
       </set>
       <set comment="band 14">
        <r>  0.0028  0.0039  0.0000 </r>
        <r>  0.0028  0.0039  0.0000 </r>
       </set>
       <set comment="band 15">
        <r>  0.0000  0.0069  0.0000 </r>
        <r>  0.0000  0.0069  0.0000 </r>
       </set>
       <set comment="band 16">
        <r>  0.0000  0.0069  0.0000 </r>
        <r>  0.0000  0.0069  0.0000 </r>
       </set>
       <set comment="band 17">
        <r>  0.0000  0.0000  0.0000 </r>
        <r>  0.0000  0.0000  0.0000 </r>
       </set>
       <set comment="band 18">
        <r>  0.0067  0.0004  0.0000 </r>
        <r>  0.0067  0.0004  0.0000 </r>
       </set>
       <set comment="band 19">
        <r>  0.0010  0.0001  0.0000 </r>
        <r>  0.0010  0.0001  0.0000 </r>
       </set>
       <set comment="band 20">
        <r>  0.0000  0.0120  0.0000 </r>
        <r>  0.0000  0.0120  0.0000 </r>
       </set>
       <set comment="band 21">
        <r>  0.0000  0.0120  0.0000 </r>
        <r>  0.0000  0.0120  0.0000 </r>
       </set>
       <set comment="band 22">
        <r>  0.0000  0.0000  0.0000 </r>
        <r>  0.0000  0.0000  0.0000 </r>
       </set>
       <set comment="band 23">
        <r>  0.0000  0.0000  0.0000 </r>
        <r>  0.0000  0.0000  0.0000 </r>
       </set>
       <set comment="band 24">
        <r>  0.0000  0.0000  0.0000 </r>
        <r>  0.0000  0.0000  0.0000 </r>
       </set>
       <set comment="band 25">
        <r>  0.0000  0.0000  0.0000 </r>
        <r>  0.0000  0.0000  0.0000 </r>
       </set>
       <set comment="band 26">
        <r>  0.0065  0.0036  0.0000 </r>
        <r>  0.0065  0.0036  0.0000 </r>
       </set>
       <set comment="band 27">
        <r>  0.0000  0.0000  0.0000 </r>
        <r>  0.0000  0.0000  0.0000 </r>
       </set>
       <set comment="band 28">
        <r>  0.0000  0.0078  0.0000 </r>
        <r>  0.0000  0.0078  0.0000 </r>
       </set>
       <set comment="band 29">
        <r>  0.0000  0.0078  0.0000 </r>
        <r>  0.0000  0.0078  0.0000 </r>
       </set>
       <set comment="band 30">
        <r>  0.0000  0.0031  0.0000 </r>
        <r>  0.0000  0.0031  0.0000 </r>
       </set>
       <set comment="band 31">
        <r>  0.0000  0.0031  0.0000 </r>
        <r>  0.0000  0.0031  0.0000 </r>
       </set>
       <set comment="band 32">
        <r>  0.0031  0.0000  0.0000 </r>
        <r>  0.0031  0.0000  0.0000 </r>
       </set>
      </set>
     </set>
    </set>
   </array>
  </projected>
 </calculation>
 <structure name="finalpos" >
  <crystal>
   <varray name="basis" >
    <v>      10.00000000       0.00000000       0.00000000 </v>
    <v>       0.00000000      10.00000000       0.00000000 </v>
    <v>       0.00000000       0.00000000      10.00000000 </v>
   </varray>
   <i name="volume">   1000.00000000 </i>
   <varray name="rec_basis" >
    <v>       0.10000000       0.00000000       0.00000000 </v>
    <v>       0.00000000       0.10000000       0.00000000 </v>
    <v>       0.00000000       0.00000000       0.10000000 </v>
   </varray>
  </crystal>
  <varray name="positions" >
   <v>       0.44413711       0.00000000      -0.00000000 </v>
   <v>       0.55586289      -0.00000000       0.00000000 </v>
  </varray>
 </structure>
</modeling>
