unknown system                          
           1
    10.000000    0.000000    0.000000
     0.000000   10.000000    0.000000
     0.000000    0.000000   10.000000
   N 
     2
Direct configuration=     1
   0.44488280  0.00000000  0.00000000
   0.55511720  0.00000000  0.00000000
Direct configuration=     2
   0.43337408  0.00000000 -0.00000000
   0.56662592 -0.00000000  0.00000000
Direct configuration=     3
   0.44404465  0.00000000 -0.00000000
   0.55595535 -0.00000000  0.00000000
Direct configuration=     4
   0.44413219  0.00000000 -0.00000000
   0.55586781 -0.00000000  0.00000000
Direct configuration=     5
   0.44413711  0.00000000 -0.00000000
   0.55586289 -0.00000000  0.00000000
